;
;	File 'topol_RNA_chain_C.itp' was generated
;	By user: unknown (1503634736)
;	On host: ghpc005
;	At date: Wed Oct 16 01:36:40 2024
;
;	This is a include topology file
;
;	Created by:
;	                    :-) GROMACS - gmx pdb2gmx, 2024.2 (-:
;	
;	Executable:   /data/home/mrichte3/gromacs-2024.2/install/bin/gmx
;	Data prefix:  /data/home/mrichte3/gromacs-2024.2/install
;	Working dir:  /data/home/mrichte3/RNASeq/test_alignment/md0
;	Command line:
;	  gmx pdb2gmx -f pdb_with_modification.pdb -o structure_processed.gro -p topol.top -i posre.itp
;	Force field was read from the standard GROMACS share directory.
;

[ moleculetype ]
; Name            nrexcl
RNA_chain_C         3

[ atoms ]
;   nr       type  resnr residue  atom   cgnr     charge       mass  typeB    chargeB      massB
; residue   1 A   rtp RA5  q -0.3
     1         OH      1      A    O5'      1    -0.6223         16
     2         HO      1      A    H5T      2     0.4295      1.008
     3         CT      1      A    C5'      3     0.0558      12.01
     4         H1      1      A   H5'1      4     0.0679      1.008
     5         H1      1      A   H5'2      5     0.0679      1.008
     6         CT      1      A    C4'      6     0.1065      12.01
     7         H1      1      A    H4'      7     0.1174      1.008
     8         OS      1      A    O4'      8    -0.3548         16
     9         CT      1      A    C1'      9     0.0394      12.01
    10         H2      1      A    H1'     10     0.2007      1.008
    11         N*      1      A     N9     11    -0.0251      14.01
    12         CK      1      A     C8     12     0.2006      12.01
    13         H5      1      A     H8     13     0.1553      1.008
    14         NB      1      A     N7     14    -0.6073      14.01
    15         CB      1      A     C5     15     0.0515      12.01
    16         CA      1      A     C6     16     0.7009      12.01
    17         N2      1      A     N6     17    -0.9019      14.01
    18          H      1      A    H61     18     0.4115      1.008
    19          H      1      A    H62     19     0.4115      1.008
    20         NC      1      A     N1     20    -0.7615      14.01
    21         CQ      1      A     C2     21     0.5875      12.01
    22         H5      1      A     H2     22     0.0473      1.008
    23         NC      1      A     N3     23    -0.6997      14.01
    24         CB      1      A     C4     24     0.3053      12.01
    25         CT      1      A    C3'     25     0.2022      12.01
    26         H1      1      A    H3'     26     0.0615      1.008
    27         CT      1      A    C2'     27      0.067      12.01
    28         H1      1      A   H2'1     28     0.0972      1.008
    29         OH      1      A    O2'     29    -0.6139         16
    30         HO      1      A   HO'2     30     0.4186      1.008
    31         OS      1      A    O3'     31    -0.5246         16   ; qtot -0.3081
; residue   2 U   rtp RU   q -1.0
    32          P      2      U      P     32     1.1662      30.97
    33         O2      2      U    O1P     33     -0.776         16
    34         O2      2      U    O2P     34     -0.776         16
    35         OS      2      U    O5'     35    -0.4989         16
    36         CT      2      U    C5'     36     0.0558      12.01
    37         H1      2      U   H5'1     37     0.0679      1.008
    38         H1      2      U   H5'2     38     0.0679      1.008
    39         CT      2      U    C4'     39     0.1065      12.01
    40         H1      2      U    H4'     40     0.1174      1.008
    41         OS      2      U    O4'     41    -0.3548         16
    42         CT      2      U    C1'     42     0.0674      12.01
    43         H2      2      U    H1'     43     0.1824      1.008
    44         N*      2      U     N1     44     0.0418      14.01
    45         CM      2      U     C6     45    -0.1126      12.01
    46         H4      2      U     H6     46     0.2188      1.008
    47         CM      2      U     C5     47    -0.3635      12.01
    48         HA      2      U     H5     48     0.1811      1.008
    49          C      2      U     C4     49     0.5952      12.01
    50          O      2      U     O4     50    -0.5761         16
    51         NA      2      U     N3     51    -0.3549      14.01
    52          H      2      U     H3     52     0.3154      1.008
    53          C      2      U     C2     53     0.4687      12.01
    54          O      2      U     O2     54    -0.5477         16
    55         CT      2      U    C3'     55     0.2022      12.01
    56         H1      2      U    H3'     56     0.0615      1.008
    57         CT      2      U    C2'     57      0.067      12.01
    58         H1      2      U   H2'1     58     0.0972      1.008
    59         OH      2      U    O2'     59    -0.6139         16
    60         HO      2      U   HO'2     60     0.4186      1.008
    61         OS      2      U    O3'     61    -0.5246         16   ; qtot -1.308
; residue   3 C   rtp RC   q -1.0
    62          P      3      C      P     62     1.1662      30.97
    63         O2      3      C    O1P     63     -0.776         16
    64         O2      3      C    O2P     64     -0.776         16
    65         OS      3      C    O5'     65    -0.4989         16
    66         CT      3      C    C5'     66     0.0558      12.01
    67         H1      3      C   H5'1     67     0.0679      1.008
    68         H1      3      C   H5'2     68     0.0679      1.008
    69         CT      3      C    C4'     69     0.1065      12.01
    70         H1      3      C    H4'     70     0.1174      1.008
    71         OS      3      C    O4'     71    -0.3548         16
    72         CT      3      C    C1'     72     0.0066      12.01
    73         H2      3      C    H1'     73     0.2029      1.008
    74         N*      3      C     N1     74    -0.0484      14.01
    75         CM      3      C     C6     75     0.0053      12.01
    76         H4      3      C     H6     76     0.1958      1.008
    77         CM      3      C     C5     77    -0.5215      12.01
    78         HA      3      C     H5     78     0.1928      1.008
    79         CA      3      C     C4     79     0.8185      12.01
    80         N2      3      C     N4     80     -0.953      14.01
    81          H      3      C    H41     81     0.4234      1.008
    82          H      3      C    H42     82     0.4234      1.008
    83         NC      3      C     N3     83    -0.7584      14.01
    84          C      3      C     C2     84     0.7538      12.01
    85          O      3      C     O2     85    -0.6252         16
    86         CT      3      C    C3'     86     0.2022      12.01
    87         H1      3      C    H3'     87     0.0615      1.008
    88         CT      3      C    C2'     88      0.067      12.01
    89         H1      3      C   H2'1     89     0.0972      1.008
    90         OH      3      C    O2'     90    -0.6139         16
    91         HO      3      C   HO'2     91     0.4186      1.008
    92         OS      3      C    O3'     92    -0.5246         16   ; qtot -2.308
; residue   4 U   rtp RU   q -1.0
    93          P      4      U      P     93     1.1662      30.97
    94         O2      4      U    O1P     94     -0.776         16
    95         O2      4      U    O2P     95     -0.776         16
    96         OS      4      U    O5'     96    -0.4989         16
    97         CT      4      U    C5'     97     0.0558      12.01
    98         H1      4      U   H5'1     98     0.0679      1.008
    99         H1      4      U   H5'2     99     0.0679      1.008
   100         CT      4      U    C4'    100     0.1065      12.01
   101         H1      4      U    H4'    101     0.1174      1.008
   102         OS      4      U    O4'    102    -0.3548         16
   103         CT      4      U    C1'    103     0.0674      12.01
   104         H2      4      U    H1'    104     0.1824      1.008
   105         N*      4      U     N1    105     0.0418      14.01
   106         CM      4      U     C6    106    -0.1126      12.01
   107         H4      4      U     H6    107     0.2188      1.008
   108         CM      4      U     C5    108    -0.3635      12.01
   109         HA      4      U     H5    109     0.1811      1.008
   110          C      4      U     C4    110     0.5952      12.01
   111          O      4      U     O4    111    -0.5761         16
   112         NA      4      U     N3    112    -0.3549      14.01
   113          H      4      U     H3    113     0.3154      1.008
   114          C      4      U     C2    114     0.4687      12.01
   115          O      4      U     O2    115    -0.5477         16
   116         CT      4      U    C3'    116     0.2022      12.01
   117         H1      4      U    H3'    117     0.0615      1.008
   118         CT      4      U    C2'    118      0.067      12.01
   119         H1      4      U   H2'1    119     0.0972      1.008
   120         OH      4      U    O2'    120    -0.6139         16
   121         HO      4      U   HO'2    121     0.4186      1.008
   122         OS      4      U    O3'    122    -0.5246         16   ; qtot -3.308
; residue   5 C   rtp RC   q -1.0
   123          P      5      C      P    123     1.1662      30.97
   124         O2      5      C    O1P    124     -0.776         16
   125         O2      5      C    O2P    125     -0.776         16
   126         OS      5      C    O5'    126    -0.4989         16
   127         CT      5      C    C5'    127     0.0558      12.01
   128         H1      5      C   H5'1    128     0.0679      1.008
   129         H1      5      C   H5'2    129     0.0679      1.008
   130         CT      5      C    C4'    130     0.1065      12.01
   131         H1      5      C    H4'    131     0.1174      1.008
   132         OS      5      C    O4'    132    -0.3548         16
   133         CT      5      C    C1'    133     0.0066      12.01
   134         H2      5      C    H1'    134     0.2029      1.008
   135         N*      5      C     N1    135    -0.0484      14.01
   136         CM      5      C     C6    136     0.0053      12.01
   137         H4      5      C     H6    137     0.1958      1.008
   138         CM      5      C     C5    138    -0.5215      12.01
   139         HA      5      C     H5    139     0.1928      1.008
   140         CA      5      C     C4    140     0.8185      12.01
   141         N2      5      C     N4    141     -0.953      14.01
   142          H      5      C    H41    142     0.4234      1.008
   143          H      5      C    H42    143     0.4234      1.008
   144         NC      5      C     N3    144    -0.7584      14.01
   145          C      5      C     C2    145     0.7538      12.01
   146          O      5      C     O2    146    -0.6252         16
   147         CT      5      C    C3'    147     0.2022      12.01
   148         H1      5      C    H3'    148     0.0615      1.008
   149         CT      5      C    C2'    149      0.067      12.01
   150         H1      5      C   H2'1    150     0.0972      1.008
   151         OH      5      C    O2'    151    -0.6139         16
   152         HO      5      C   HO'2    152     0.4186      1.008
   153         OS      5      C    O3'    153    -0.5246         16   ; qtot -4.308
; residue   6 C   rtp RC   q -1.0
   154          P      6      C      P    154     1.1662      30.97
   155         O2      6      C    O1P    155     -0.776         16
   156         O2      6      C    O2P    156     -0.776         16
   157         OS      6      C    O5'    157    -0.4989         16
   158         CT      6      C    C5'    158     0.0558      12.01
   159         H1      6      C   H5'1    159     0.0679      1.008
   160         H1      6      C   H5'2    160     0.0679      1.008
   161         CT      6      C    C4'    161     0.1065      12.01
   162         H1      6      C    H4'    162     0.1174      1.008
   163         OS      6      C    O4'    163    -0.3548         16
   164         CT      6      C    C1'    164     0.0066      12.01
   165         H2      6      C    H1'    165     0.2029      1.008
   166         N*      6      C     N1    166    -0.0484      14.01
   167         CM      6      C     C6    167     0.0053      12.01
   168         H4      6      C     H6    168     0.1958      1.008
   169         CM      6      C     C5    169    -0.5215      12.01
   170         HA      6      C     H5    170     0.1928      1.008
   171         CA      6      C     C4    171     0.8185      12.01
   172         N2      6      C     N4    172     -0.953      14.01
   173          H      6      C    H41    173     0.4234      1.008
   174          H      6      C    H42    174     0.4234      1.008
   175         NC      6      C     N3    175    -0.7584      14.01
   176          C      6      C     C2    176     0.7538      12.01
   177          O      6      C     O2    177    -0.6252         16
   178         CT      6      C    C3'    178     0.2022      12.01
   179         H1      6      C    H3'    179     0.0615      1.008
   180         CT      6      C    C2'    180      0.067      12.01
   181         H1      6      C   H2'1    181     0.0972      1.008
   182         OH      6      C    O2'    182    -0.6139         16
   183         HO      6      C   HO'2    183     0.4186      1.008
   184         OS      6      C    O3'    184    -0.5246         16   ; qtot -5.308
; residue   7 U   rtp RU   q -1.0
   185          P      7      U      P    185     1.1662      30.97
   186         O2      7      U    O1P    186     -0.776         16
   187         O2      7      U    O2P    187     -0.776         16
   188         OS      7      U    O5'    188    -0.4989         16
   189         CT      7      U    C5'    189     0.0558      12.01
   190         H1      7      U   H5'1    190     0.0679      1.008
   191         H1      7      U   H5'2    191     0.0679      1.008
   192         CT      7      U    C4'    192     0.1065      12.01
   193         H1      7      U    H4'    193     0.1174      1.008
   194         OS      7      U    O4'    194    -0.3548         16
   195         CT      7      U    C1'    195     0.0674      12.01
   196         H2      7      U    H1'    196     0.1824      1.008
   197         N*      7      U     N1    197     0.0418      14.01
   198         CM      7      U     C6    198    -0.1126      12.01
   199         H4      7      U     H6    199     0.2188      1.008
   200         CM      7      U     C5    200    -0.3635      12.01
   201         HA      7      U     H5    201     0.1811      1.008
   202          C      7      U     C4    202     0.5952      12.01
   203          O      7      U     O4    203    -0.5761         16
   204         NA      7      U     N3    204    -0.3549      14.01
   205          H      7      U     H3    205     0.3154      1.008
   206          C      7      U     C2    206     0.4687      12.01
   207          O      7      U     O2    207    -0.5477         16
   208         CT      7      U    C3'    208     0.2022      12.01
   209         H1      7      U    H3'    209     0.0615      1.008
   210         CT      7      U    C2'    210      0.067      12.01
   211         H1      7      U   H2'1    211     0.0972      1.008
   212         OH      7      U    O2'    212    -0.6139         16
   213         HO      7      U   HO'2    213     0.4186      1.008
   214         OS      7      U    O3'    214    -0.5246         16   ; qtot -6.308
; residue   8 A   rtp RA   q -1.0
   215          P      8      A      P    215     1.1662      30.97
   216         O2      8      A    O1P    216     -0.776         16
   217         O2      8      A    O2P    217     -0.776         16
   218         OS      8      A    O5'    218    -0.4989         16
   219         CT      8      A    C5'    219     0.0558      12.01
   220         H1      8      A   H5'1    220     0.0679      1.008
   221         H1      8      A   H5'2    221     0.0679      1.008
   222         CT      8      A    C4'    222     0.1065      12.01
   223         H1      8      A    H4'    223     0.1174      1.008
   224         OS      8      A    O4'    224    -0.3548         16
   225         CT      8      A    C1'    225     0.0394      12.01
   226         H2      8      A    H1'    226     0.2007      1.008
   227         N*      8      A     N9    227    -0.0251      14.01
   228         CK      8      A     C8    228     0.2006      12.01
   229         H5      8      A     H8    229     0.1553      1.008
   230         NB      8      A     N7    230    -0.6073      14.01
   231         CB      8      A     C5    231     0.0515      12.01
   232         CA      8      A     C6    232     0.7009      12.01
   233         N2      8      A     N6    233    -0.9019      14.01
   234          H      8      A    H61    234     0.4115      1.008
   235          H      8      A    H62    235     0.4115      1.008
   236         NC      8      A     N1    236    -0.7615      14.01
   237         CQ      8      A     C2    237     0.5875      12.01
   238         H5      8      A     H2    238     0.0473      1.008
   239         NC      8      A     N3    239    -0.6997      14.01
   240         CB      8      A     C4    240     0.3053      12.01
   241         CT      8      A    C3'    241     0.2022      12.01
   242         H1      8      A    H3'    242     0.0615      1.008
   243         CT      8      A    C2'    243      0.067      12.01
   244         H1      8      A   H2'1    244     0.0972      1.008
   245         OH      8      A    O2'    245    -0.6139         16
   246         HO      8      A   HO'2    246     0.4186      1.008
   247         OS      8      A    O3'    247    -0.5246         16   ; qtot -7.308
; residue   9 A   rtp RA   q -1.0
   248          P      9      A      P    248     1.1662      30.97
   249         O2      9      A    O1P    249     -0.776         16
   250         O2      9      A    O2P    250     -0.776         16
   251         OS      9      A    O5'    251    -0.4989         16
   252         CT      9      A    C5'    252     0.0558      12.01
   253         H1      9      A   H5'1    253     0.0679      1.008
   254         H1      9      A   H5'2    254     0.0679      1.008
   255         CT      9      A    C4'    255     0.1065      12.01
   256         H1      9      A    H4'    256     0.1174      1.008
   257         OS      9      A    O4'    257    -0.3548         16
   258         CT      9      A    C1'    258     0.0394      12.01
   259         H2      9      A    H1'    259     0.2007      1.008
   260         N*      9      A     N9    260    -0.0251      14.01
   261         CK      9      A     C8    261     0.2006      12.01
   262         H5      9      A     H8    262     0.1553      1.008
   263         NB      9      A     N7    263    -0.6073      14.01
   264         CB      9      A     C5    264     0.0515      12.01
   265         CA      9      A     C6    265     0.7009      12.01
   266         N2      9      A     N6    266    -0.9019      14.01
   267          H      9      A    H61    267     0.4115      1.008
   268          H      9      A    H62    268     0.4115      1.008
   269         NC      9      A     N1    269    -0.7615      14.01
   270         CQ      9      A     C2    270     0.5875      12.01
   271         H5      9      A     H2    271     0.0473      1.008
   272         NC      9      A     N3    272    -0.6997      14.01
   273         CB      9      A     C4    273     0.3053      12.01
   274         CT      9      A    C3'    274     0.2022      12.01
   275         H1      9      A    H3'    275     0.0615      1.008
   276         CT      9      A    C2'    276      0.067      12.01
   277         H1      9      A   H2'1    277     0.0972      1.008
   278         OH      9      A    O2'    278    -0.6139         16
   279         HO      9      A   HO'2    279     0.4186      1.008
   280         OS      9      A    O3'    280    -0.5246         16   ; qtot -8.308
; residue  10 U   rtp RU   q -1.0
   281          P     10      U      P    281     1.1662      30.97
   282         O2     10      U    O1P    282     -0.776         16
   283         O2     10      U    O2P    283     -0.776         16
   284         OS     10      U    O5'    284    -0.4989         16
   285         CT     10      U    C5'    285     0.0558      12.01
   286         H1     10      U   H5'1    286     0.0679      1.008
   287         H1     10      U   H5'2    287     0.0679      1.008
   288         CT     10      U    C4'    288     0.1065      12.01
   289         H1     10      U    H4'    289     0.1174      1.008
   290         OS     10      U    O4'    290    -0.3548         16
   291         CT     10      U    C1'    291     0.0674      12.01
   292         H2     10      U    H1'    292     0.1824      1.008
   293         N*     10      U     N1    293     0.0418      14.01
   294         CM     10      U     C6    294    -0.1126      12.01
   295         H4     10      U     H6    295     0.2188      1.008
   296         CM     10      U     C5    296    -0.3635      12.01
   297         HA     10      U     H5    297     0.1811      1.008
   298          C     10      U     C4    298     0.5952      12.01
   299          O     10      U     O4    299    -0.5761         16
   300         NA     10      U     N3    300    -0.3549      14.01
   301          H     10      U     H3    301     0.3154      1.008
   302          C     10      U     C2    302     0.4687      12.01
   303          O     10      U     O2    303    -0.5477         16
   304         CT     10      U    C3'    304     0.2022      12.01
   305         H1     10      U    H3'    305     0.0615      1.008
   306         CT     10      U    C2'    306      0.067      12.01
   307         H1     10      U   H2'1    307     0.0972      1.008
   308         OH     10      U    O2'    308    -0.6139         16
   309         HO     10      U   HO'2    309     0.4186      1.008
   310         OS     10      U    O3'    310    -0.5246         16   ; qtot -9.308
; residue  11 G   rtp RG   q -1.0
   311          P     11      G      P    311     1.1662      30.97
   312         O2     11      G    O1P    312     -0.776         16
   313         O2     11      G    O2P    313     -0.776         16
   314         OS     11      G    O5'    314    -0.4989         16
   315         CT     11      G    C5'    315     0.0558      12.01
   316         H1     11      G   H5'1    316     0.0679      1.008
   317         H1     11      G   H5'2    317     0.0679      1.008
   318         CT     11      G    C4'    318     0.1065      12.01
   319         H1     11      G    H4'    319     0.1174      1.008
   320         OS     11      G    O4'    320    -0.3548         16
   321         CT     11      G    C1'    321     0.0191      12.01
   322         H2     11      G    H1'    322     0.2006      1.008
   323         N*     11      G     N9    323     0.0492      14.01
   324         CK     11      G     C8    324     0.1374      12.01
   325         H5     11      G     H8    325      0.164      1.008
   326         NB     11      G     N7    326    -0.5709      14.01
   327         CB     11      G     C5    327     0.1744      12.01
   328          C     11      G     C6    328      0.477      12.01
   329          O     11      G     O6    329    -0.5597         16
   330         NA     11      G     N1    330    -0.4787      14.01
   331          H     11      G     H1    331     0.3424      1.008
   332         CA     11      G     C2    332     0.7657      12.01
   333         N2     11      G     N2    333    -0.9672      14.01
   334          H     11      G    H21    334     0.4364      1.008
   335          H     11      G    H22    335     0.4364      1.008
   336         NC     11      G     N3    336    -0.6323      14.01
   337         CB     11      G     C4    337     0.1222      12.01
   338         CT     11      G    C3'    338     0.2022      12.01
   339         H1     11      G    H3'    339     0.0615      1.008
   340         CT     11      G    C2'    340      0.067      12.01
   341         H1     11      G   H2'1    341     0.0972      1.008
   342         OH     11      G    O2'    342    -0.6139         16
   343         HO     11      G   HO'2    343     0.4186      1.008
   344         OS     11      G    O3'    344    -0.5246         16   ; qtot -10.31
; residue  12 C   rtp RC   q -1.0
   345          P     12      C      P    345     1.1662      30.97
   346         O2     12      C    O1P    346     -0.776         16
   347         O2     12      C    O2P    347     -0.776         16
   348         OS     12      C    O5'    348    -0.4989         16
   349         CT     12      C    C5'    349     0.0558      12.01
   350         H1     12      C   H5'1    350     0.0679      1.008
   351         H1     12      C   H5'2    351     0.0679      1.008
   352         CT     12      C    C4'    352     0.1065      12.01
   353         H1     12      C    H4'    353     0.1174      1.008
   354         OS     12      C    O4'    354    -0.3548         16
   355         CT     12      C    C1'    355     0.0066      12.01
   356         H2     12      C    H1'    356     0.2029      1.008
   357         N*     12      C     N1    357    -0.0484      14.01
   358         CM     12      C     C6    358     0.0053      12.01
   359         H4     12      C     H6    359     0.1958      1.008
   360         CM     12      C     C5    360    -0.5215      12.01
   361         HA     12      C     H5    361     0.1928      1.008
   362         CA     12      C     C4    362     0.8185      12.01
   363         N2     12      C     N4    363     -0.953      14.01
   364          H     12      C    H41    364     0.4234      1.008
   365          H     12      C    H42    365     0.4234      1.008
   366         NC     12      C     N3    366    -0.7584      14.01
   367          C     12      C     C2    367     0.7538      12.01
   368          O     12      C     O2    368    -0.6252         16
   369         CT     12      C    C3'    369     0.2022      12.01
   370         H1     12      C    H3'    370     0.0615      1.008
   371         CT     12      C    C2'    371      0.067      12.01
   372         H1     12      C   H2'1    372     0.0972      1.008
   373         OH     12      C    O2'    373    -0.6139         16
   374         HO     12      C   HO'2    374     0.4186      1.008
   375         OS     12      C    O3'    375    -0.5246         16   ; qtot -11.31
; residue  13 U   rtp RU   q -1.0
   376          P     13      U      P    376     1.1662      30.97
   377         O2     13      U    O1P    377     -0.776         16
   378         O2     13      U    O2P    378     -0.776         16
   379         OS     13      U    O5'    379    -0.4989         16
   380         CT     13      U    C5'    380     0.0558      12.01
   381         H1     13      U   H5'1    381     0.0679      1.008
   382         H1     13      U   H5'2    382     0.0679      1.008
   383         CT     13      U    C4'    383     0.1065      12.01
   384         H1     13      U    H4'    384     0.1174      1.008
   385         OS     13      U    O4'    385    -0.3548         16
   386         CT     13      U    C1'    386     0.0674      12.01
   387         H2     13      U    H1'    387     0.1824      1.008
   388         N*     13      U     N1    388     0.0418      14.01
   389         CM     13      U     C6    389    -0.1126      12.01
   390         H4     13      U     H6    390     0.2188      1.008
   391         CM     13      U     C5    391    -0.3635      12.01
   392         HA     13      U     H5    392     0.1811      1.008
   393          C     13      U     C4    393     0.5952      12.01
   394          O     13      U     O4    394    -0.5761         16
   395         NA     13      U     N3    395    -0.3549      14.01
   396          H     13      U     H3    396     0.3154      1.008
   397          C     13      U     C2    397     0.4687      12.01
   398          O     13      U     O2    398    -0.5477         16
   399         CT     13      U    C3'    399     0.2022      12.01
   400         H1     13      U    H3'    400     0.0615      1.008
   401         CT     13      U    C2'    401      0.067      12.01
   402         H1     13      U   H2'1    402     0.0972      1.008
   403         OH     13      U    O2'    403    -0.6139         16
   404         HO     13      U   HO'2    404     0.4186      1.008
   405         OS     13      U    O3'    405    -0.5246         16   ; qtot -12.31
; residue  14 A   rtp RA   q -1.0
   406          P     14      A      P    406     1.1662      30.97
   407         O2     14      A    O1P    407     -0.776         16
   408         O2     14      A    O2P    408     -0.776         16
   409         OS     14      A    O5'    409    -0.4989         16
   410         CT     14      A    C5'    410     0.0558      12.01
   411         H1     14      A   H5'1    411     0.0679      1.008
   412         H1     14      A   H5'2    412     0.0679      1.008
   413         CT     14      A    C4'    413     0.1065      12.01
   414         H1     14      A    H4'    414     0.1174      1.008
   415         OS     14      A    O4'    415    -0.3548         16
   416         CT     14      A    C1'    416     0.0394      12.01
   417         H2     14      A    H1'    417     0.2007      1.008
   418         N*     14      A     N9    418    -0.0251      14.01
   419         CK     14      A     C8    419     0.2006      12.01
   420         H5     14      A     H8    420     0.1553      1.008
   421         NB     14      A     N7    421    -0.6073      14.01
   422         CB     14      A     C5    422     0.0515      12.01
   423         CA     14      A     C6    423     0.7009      12.01
   424         N2     14      A     N6    424    -0.9019      14.01
   425          H     14      A    H61    425     0.4115      1.008
   426          H     14      A    H62    426     0.4115      1.008
   427         NC     14      A     N1    427    -0.7615      14.01
   428         CQ     14      A     C2    428     0.5875      12.01
   429         H5     14      A     H2    429     0.0473      1.008
   430         NC     14      A     N3    430    -0.6997      14.01
   431         CB     14      A     C4    431     0.3053      12.01
   432         CT     14      A    C3'    432     0.2022      12.01
   433         H1     14      A    H3'    433     0.0615      1.008
   434         CT     14      A    C2'    434      0.067      12.01
   435         H1     14      A   H2'1    435     0.0972      1.008
   436         OH     14      A    O2'    436    -0.6139         16
   437         HO     14      A   HO'2    437     0.4186      1.008
   438         OS     14      A    O3'    438    -0.5246         16   ; qtot -13.31
; residue  15 U   rtp RU   q -1.0
   439          P     15      U      P    439     1.1662      30.97
   440         O2     15      U    O1P    440     -0.776         16
   441         O2     15      U    O2P    441     -0.776         16
   442         OS     15      U    O5'    442    -0.4989         16
   443         CT     15      U    C5'    443     0.0558      12.01
   444         H1     15      U   H5'1    444     0.0679      1.008
   445         H1     15      U   H5'2    445     0.0679      1.008
   446         CT     15      U    C4'    446     0.1065      12.01
   447         H1     15      U    H4'    447     0.1174      1.008
   448         OS     15      U    O4'    448    -0.3548         16
   449         CT     15      U    C1'    449     0.0674      12.01
   450         H2     15      U    H1'    450     0.1824      1.008
   451         N*     15      U     N1    451     0.0418      14.01
   452         CM     15      U     C6    452    -0.1126      12.01
   453         H4     15      U     H6    453     0.2188      1.008
   454         CM     15      U     C5    454    -0.3635      12.01
   455         HA     15      U     H5    455     0.1811      1.008
   456          C     15      U     C4    456     0.5952      12.01
   457          O     15      U     O4    457    -0.5761         16
   458         NA     15      U     N3    458    -0.3549      14.01
   459          H     15      U     H3    459     0.3154      1.008
   460          C     15      U     C2    460     0.4687      12.01
   461          O     15      U     O2    461    -0.5477         16
   462         CT     15      U    C3'    462     0.2022      12.01
   463         H1     15      U    H3'    463     0.0615      1.008
   464         CT     15      U    C2'    464      0.067      12.01
   465         H1     15      U   H2'1    465     0.0972      1.008
   466         OH     15      U    O2'    466    -0.6139         16
   467         HO     15      U   HO'2    467     0.4186      1.008
   468         OS     15      U    O3'    468    -0.5246         16   ; qtot -14.31
; residue  16 C   rtp RC   q -1.0
   469          P     16      C      P    469     1.1662      30.97
   470         O2     16      C    O1P    470     -0.776         16
   471         O2     16      C    O2P    471     -0.776         16
   472         OS     16      C    O5'    472    -0.4989         16
   473         CT     16      C    C5'    473     0.0558      12.01
   474         H1     16      C   H5'1    474     0.0679      1.008
   475         H1     16      C   H5'2    475     0.0679      1.008
   476         CT     16      C    C4'    476     0.1065      12.01
   477         H1     16      C    H4'    477     0.1174      1.008
   478         OS     16      C    O4'    478    -0.3548         16
   479         CT     16      C    C1'    479     0.0066      12.01
   480         H2     16      C    H1'    480     0.2029      1.008
   481         N*     16      C     N1    481    -0.0484      14.01
   482         CM     16      C     C6    482     0.0053      12.01
   483         H4     16      C     H6    483     0.1958      1.008
   484         CM     16      C     C5    484    -0.5215      12.01
   485         HA     16      C     H5    485     0.1928      1.008
   486         CA     16      C     C4    486     0.8185      12.01
   487         N2     16      C     N4    487     -0.953      14.01
   488          H     16      C    H41    488     0.4234      1.008
   489          H     16      C    H42    489     0.4234      1.008
   490         NC     16      C     N3    490    -0.7584      14.01
   491          C     16      C     C2    491     0.7538      12.01
   492          O     16      C     O2    492    -0.6252         16
   493         CT     16      C    C3'    493     0.2022      12.01
   494         H1     16      C    H3'    494     0.0615      1.008
   495         CT     16      C    C2'    495      0.067      12.01
   496         H1     16      C   H2'1    496     0.0972      1.008
   497         OH     16      C    O2'    497    -0.6139         16
   498         HO     16      C   HO'2    498     0.4186      1.008
   499         OS     16      C    O3'    499    -0.5246         16   ; qtot -15.31
; residue  17 C   rtp RC   q -1.0
   500          P     17      C      P    500     1.1662      30.97
   501         O2     17      C    O1P    501     -0.776         16
   502         O2     17      C    O2P    502     -0.776         16
   503         OS     17      C    O5'    503    -0.4989         16
   504         CT     17      C    C5'    504     0.0558      12.01
   505         H1     17      C   H5'1    505     0.0679      1.008
   506         H1     17      C   H5'2    506     0.0679      1.008
   507         CT     17      C    C4'    507     0.1065      12.01
   508         H1     17      C    H4'    508     0.1174      1.008
   509         OS     17      C    O4'    509    -0.3548         16
   510         CT     17      C    C1'    510     0.0066      12.01
   511         H2     17      C    H1'    511     0.2029      1.008
   512         N*     17      C     N1    512    -0.0484      14.01
   513         CM     17      C     C6    513     0.0053      12.01
   514         H4     17      C     H6    514     0.1958      1.008
   515         CM     17      C     C5    515    -0.5215      12.01
   516         HA     17      C     H5    516     0.1928      1.008
   517         CA     17      C     C4    517     0.8185      12.01
   518         N2     17      C     N4    518     -0.953      14.01
   519          H     17      C    H41    519     0.4234      1.008
   520          H     17      C    H42    520     0.4234      1.008
   521         NC     17      C     N3    521    -0.7584      14.01
   522          C     17      C     C2    522     0.7538      12.01
   523          O     17      C     O2    523    -0.6252         16
   524         CT     17      C    C3'    524     0.2022      12.01
   525         H1     17      C    H3'    525     0.0615      1.008
   526         CT     17      C    C2'    526      0.067      12.01
   527         H1     17      C   H2'1    527     0.0972      1.008
   528         OH     17      C    O2'    528    -0.6139         16
   529         HO     17      C   HO'2    529     0.4186      1.008
   530         OS     17      C    O3'    530    -0.5246         16   ; qtot -16.31
; residue  18 C   rtp RC   q -1.0
   531          P     18      C      P    531     1.1662      30.97
   532         O2     18      C    O1P    532     -0.776         16
   533         O2     18      C    O2P    533     -0.776         16
   534         OS     18      C    O5'    534    -0.4989         16
   535         CT     18      C    C5'    535     0.0558      12.01
   536         H1     18      C   H5'1    536     0.0679      1.008
   537         H1     18      C   H5'2    537     0.0679      1.008
   538         CT     18      C    C4'    538     0.1065      12.01
   539         H1     18      C    H4'    539     0.1174      1.008
   540         OS     18      C    O4'    540    -0.3548         16
   541         CT     18      C    C1'    541     0.0066      12.01
   542         H2     18      C    H1'    542     0.2029      1.008
   543         N*     18      C     N1    543    -0.0484      14.01
   544         CM     18      C     C6    544     0.0053      12.01
   545         H4     18      C     H6    545     0.1958      1.008
   546         CM     18      C     C5    546    -0.5215      12.01
   547         HA     18      C     H5    547     0.1928      1.008
   548         CA     18      C     C4    548     0.8185      12.01
   549         N2     18      C     N4    549     -0.953      14.01
   550          H     18      C    H41    550     0.4234      1.008
   551          H     18      C    H42    551     0.4234      1.008
   552         NC     18      C     N3    552    -0.7584      14.01
   553          C     18      C     C2    553     0.7538      12.01
   554          O     18      C     O2    554    -0.6252         16
   555         CT     18      C    C3'    555     0.2022      12.01
   556         H1     18      C    H3'    556     0.0615      1.008
   557         CT     18      C    C2'    557      0.067      12.01
   558         H1     18      C   H2'1    558     0.0972      1.008
   559         OH     18      C    O2'    559    -0.6139         16
   560         HO     18      C   HO'2    560     0.4186      1.008
   561         OS     18      C    O3'    561    -0.5246         16   ; qtot -17.31
; residue  19 U   rtp RU   q -1.0
   562          P     19      U      P    562     1.1662      30.97
   563         O2     19      U    O1P    563     -0.776         16
   564         O2     19      U    O2P    564     -0.776         16
   565         OS     19      U    O5'    565    -0.4989         16
   566         CT     19      U    C5'    566     0.0558      12.01
   567         H1     19      U   H5'1    567     0.0679      1.008
   568         H1     19      U   H5'2    568     0.0679      1.008
   569         CT     19      U    C4'    569     0.1065      12.01
   570         H1     19      U    H4'    570     0.1174      1.008
   571         OS     19      U    O4'    571    -0.3548         16
   572         CT     19      U    C1'    572     0.0674      12.01
   573         H2     19      U    H1'    573     0.1824      1.008
   574         N*     19      U     N1    574     0.0418      14.01
   575         CM     19      U     C6    575    -0.1126      12.01
   576         H4     19      U     H6    576     0.2188      1.008
   577         CM     19      U     C5    577    -0.3635      12.01
   578         HA     19      U     H5    578     0.1811      1.008
   579          C     19      U     C4    579     0.5952      12.01
   580          O     19      U     O4    580    -0.5761         16
   581         NA     19      U     N3    581    -0.3549      14.01
   582          H     19      U     H3    582     0.3154      1.008
   583          C     19      U     C2    583     0.4687      12.01
   584          O     19      U     O2    584    -0.5477         16
   585         CT     19      U    C3'    585     0.2022      12.01
   586         H1     19      U    H3'    586     0.0615      1.008
   587         CT     19      U    C2'    587      0.067      12.01
   588         H1     19      U   H2'1    588     0.0972      1.008
   589         OH     19      U    O2'    589    -0.6139         16
   590         HO     19      U   HO'2    590     0.4186      1.008
   591         OS     19      U    O3'    591    -0.5246         16   ; qtot -18.31
; residue  20 C   rtp RC   q -1.0
   592          P     20      C      P    592     1.1662      30.97
   593         O2     20      C    O1P    593     -0.776         16
   594         O2     20      C    O2P    594     -0.776         16
   595         OS     20      C    O5'    595    -0.4989         16
   596         CT     20      C    C5'    596     0.0558      12.01
   597         H1     20      C   H5'1    597     0.0679      1.008
   598         H1     20      C   H5'2    598     0.0679      1.008
   599         CT     20      C    C4'    599     0.1065      12.01
   600         H1     20      C    H4'    600     0.1174      1.008
   601         OS     20      C    O4'    601    -0.3548         16
   602         CT     20      C    C1'    602     0.0066      12.01
   603         H2     20      C    H1'    603     0.2029      1.008
   604         N*     20      C     N1    604    -0.0484      14.01
   605         CM     20      C     C6    605     0.0053      12.01
   606         H4     20      C     H6    606     0.1958      1.008
   607         CM     20      C     C5    607    -0.5215      12.01
   608         HA     20      C     H5    608     0.1928      1.008
   609         CA     20      C     C4    609     0.8185      12.01
   610         N2     20      C     N4    610     -0.953      14.01
   611          H     20      C    H41    611     0.4234      1.008
   612          H     20      C    H42    612     0.4234      1.008
   613         NC     20      C     N3    613    -0.7584      14.01
   614          C     20      C     C2    614     0.7538      12.01
   615          O     20      C     O2    615    -0.6252         16
   616         CT     20      C    C3'    616     0.2022      12.01
   617         H1     20      C    H3'    617     0.0615      1.008
   618         CT     20      C    C2'    618      0.067      12.01
   619         H1     20      C   H2'1    619     0.0972      1.008
   620         OH     20      C    O2'    620    -0.6139         16
   621         HO     20      C   HO'2    621     0.4186      1.008
   622         OS     20      C    O3'    622    -0.5246         16   ; qtot -19.31
; residue  21 C   rtp RC3  q -0.7
   623          P     21      C      P    623     1.1662      30.97
   624         O2     21      C    O1P    624     -0.776         16
   625         O2     21      C    O2P    625     -0.776         16
   626         OS     21      C    O5'    626    -0.4989         16
   627         CT     21      C    C5'    627     0.0558      12.01
   628         H1     21      C   H5'1    628     0.0679      1.008
   629         H1     21      C   H5'2    629     0.0679      1.008
   630         CT     21      C    C4'    630     0.1065      12.01
   631         H1     21      C    H4'    631     0.1174      1.008
   632         OS     21      C    O4'    632    -0.3548         16
   633         CT     21      C    C1'    633     0.0066      12.01
   634         H2     21      C    H1'    634     0.2029      1.008
   635         N*     21      C     N1    635    -0.0484      14.01
   636         CM     21      C     C6    636     0.0053      12.01
   637         H4     21      C     H6    637     0.1958      1.008
   638         CM     21      C     C5    638    -0.5215      12.01
   639         HA     21      C     H5    639     0.1928      1.008
   640         CA     21      C     C4    640     0.8185      12.01
   641         N2     21      C     N4    641     -0.953      14.01
   642          H     21      C    H41    642     0.4234      1.008
   643          H     21      C    H42    643     0.4234      1.008
   644         NC     21      C     N3    644    -0.7584      14.01
   645          C     21      C     C2    645     0.7538      12.01
   646          O     21      C     O2    646    -0.6252         16
   647         CT     21      C    C3'    647     0.2022      12.01
   648         H1     21      C    H3'    648     0.0615      1.008
   649         CT     21      C    C2'    649      0.067      12.01
   650         H1     21      C   H2'1    650     0.0972      1.008
   651         OH     21      C    O2'    651    -0.6139         16
   652         HO     21      C   HO'2    652     0.4186      1.008
   653         OH     21      C    O3'    653    -0.6541         16
   654         HO     21      C    H3T    654     0.4376      1.008   ; qtot -20

[ bonds ]
;  ai    aj funct            c0            c1            c2            c3
    1     2     1 
    1     3     1 
    3     4     1 
    3     5     1 
    3     6     1 
    6     7     1 
    6     8     1 
    6    25     1 
    8     9     1 
    9    10     1 
    9    11     1 
    9    27     1 
   11    12     1 
   11    24     1 
   12    13     1 
   12    14     1 
   14    15     1 
   15    16     1 
   15    24     1 
   16    17     1 
   16    20     1 
   17    18     1 
   17    19     1 
   20    21     1 
   21    22     1 
   21    23     1 
   23    24     1 
   25    26     1 
   25    27     1 
   25    31     1 
   27    28     1 
   27    29     1 
   29    30     1 
   31    32     1 
   32    33     1 
   32    34     1 
   32    35     1 
   35    36     1 
   36    37     1 
   36    38     1 
   36    39     1 
   39    40     1 
   39    41     1 
   39    55     1 
   41    42     1 
   42    43     1 
   42    44     1 
   42    57     1 
   44    45     1 
   44    53     1 
   45    46     1 
   45    47     1 
   47    48     1 
   47    49     1 
   49    50     1 
   49    51     1 
   51    52     1 
   51    53     1 
   53    54     1 
   55    56     1 
   55    57     1 
   55    61     1 
   57    58     1 
   57    59     1 
   59    60     1 
   61    62     1 
   62    63     1 
   62    64     1 
   62    65     1 
   65    66     1 
   66    67     1 
   66    68     1 
   66    69     1 
   69    70     1 
   69    71     1 
   69    86     1 
   71    72     1 
   72    73     1 
   72    74     1 
   72    88     1 
   74    75     1 
   74    84     1 
   75    76     1 
   75    77     1 
   77    78     1 
   77    79     1 
   79    80     1 
   79    83     1 
   80    81     1 
   80    82     1 
   83    84     1 
   84    85     1 
   86    87     1 
   86    88     1 
   86    92     1 
   88    89     1 
   88    90     1 
   90    91     1 
   92    93     1 
   93    94     1 
   93    95     1 
   93    96     1 
   96    97     1 
   97    98     1 
   97    99     1 
   97   100     1 
  100   101     1 
  100   102     1 
  100   116     1 
  102   103     1 
  103   104     1 
  103   105     1 
  103   118     1 
  105   106     1 
  105   114     1 
  106   107     1 
  106   108     1 
  108   109     1 
  108   110     1 
  110   111     1 
  110   112     1 
  112   113     1 
  112   114     1 
  114   115     1 
  116   117     1 
  116   118     1 
  116   122     1 
  118   119     1 
  118   120     1 
  120   121     1 
  122   123     1 
  123   124     1 
  123   125     1 
  123   126     1 
  126   127     1 
  127   128     1 
  127   129     1 
  127   130     1 
  130   131     1 
  130   132     1 
  130   147     1 
  132   133     1 
  133   134     1 
  133   135     1 
  133   149     1 
  135   136     1 
  135   145     1 
  136   137     1 
  136   138     1 
  138   139     1 
  138   140     1 
  140   141     1 
  140   144     1 
  141   142     1 
  141   143     1 
  144   145     1 
  145   146     1 
  147   148     1 
  147   149     1 
  147   153     1 
  149   150     1 
  149   151     1 
  151   152     1 
  153   154     1 
  154   155     1 
  154   156     1 
  154   157     1 
  157   158     1 
  158   159     1 
  158   160     1 
  158   161     1 
  161   162     1 
  161   163     1 
  161   178     1 
  163   164     1 
  164   165     1 
  164   166     1 
  164   180     1 
  166   167     1 
  166   176     1 
  167   168     1 
  167   169     1 
  169   170     1 
  169   171     1 
  171   172     1 
  171   175     1 
  172   173     1 
  172   174     1 
  175   176     1 
  176   177     1 
  178   179     1 
  178   180     1 
  178   184     1 
  180   181     1 
  180   182     1 
  182   183     1 
  184   185     1 
  185   186     1 
  185   187     1 
  185   188     1 
  188   189     1 
  189   190     1 
  189   191     1 
  189   192     1 
  192   193     1 
  192   194     1 
  192   208     1 
  194   195     1 
  195   196     1 
  195   197     1 
  195   210     1 
  197   198     1 
  197   206     1 
  198   199     1 
  198   200     1 
  200   201     1 
  200   202     1 
  202   203     1 
  202   204     1 
  204   205     1 
  204   206     1 
  206   207     1 
  208   209     1 
  208   210     1 
  208   214     1 
  210   211     1 
  210   212     1 
  212   213     1 
  214   215     1 
  215   216     1 
  215   217     1 
  215   218     1 
  218   219     1 
  219   220     1 
  219   221     1 
  219   222     1 
  222   223     1 
  222   224     1 
  222   241     1 
  224   225     1 
  225   226     1 
  225   227     1 
  225   243     1 
  227   228     1 
  227   240     1 
  228   229     1 
  228   230     1 
  230   231     1 
  231   232     1 
  231   240     1 
  232   233     1 
  232   236     1 
  233   234     1 
  233   235     1 
  236   237     1 
  237   238     1 
  237   239     1 
  239   240     1 
  241   242     1 
  241   243     1 
  241   247     1 
  243   244     1 
  243   245     1 
  245   246     1 
  247   248     1 
  248   249     1 
  248   250     1 
  248   251     1 
  251   252     1 
  252   253     1 
  252   254     1 
  252   255     1 
  255   256     1 
  255   257     1 
  255   274     1 
  257   258     1 
  258   259     1 
  258   260     1 
  258   276     1 
  260   261     1 
  260   273     1 
  261   262     1 
  261   263     1 
  263   264     1 
  264   265     1 
  264   273     1 
  265   266     1 
  265   269     1 
  266   267     1 
  266   268     1 
  269   270     1 
  270   271     1 
  270   272     1 
  272   273     1 
  274   275     1 
  274   276     1 
  274   280     1 
  276   277     1 
  276   278     1 
  278   279     1 
  280   281     1 
  281   282     1 
  281   283     1 
  281   284     1 
  284   285     1 
  285   286     1 
  285   287     1 
  285   288     1 
  288   289     1 
  288   290     1 
  288   304     1 
  290   291     1 
  291   292     1 
  291   293     1 
  291   306     1 
  293   294     1 
  293   302     1 
  294   295     1 
  294   296     1 
  296   297     1 
  296   298     1 
  298   299     1 
  298   300     1 
  300   301     1 
  300   302     1 
  302   303     1 
  304   305     1 
  304   306     1 
  304   310     1 
  306   307     1 
  306   308     1 
  308   309     1 
  310   311     1 
  311   312     1 
  311   313     1 
  311   314     1 
  314   315     1 
  315   316     1 
  315   317     1 
  315   318     1 
  318   319     1 
  318   320     1 
  318   338     1 
  320   321     1 
  321   322     1 
  321   323     1 
  321   340     1 
  323   324     1 
  323   337     1 
  324   325     1 
  324   326     1 
  326   327     1 
  327   328     1 
  327   337     1 
  328   329     1 
  328   330     1 
  330   331     1 
  330   332     1 
  332   333     1 
  332   336     1 
  333   334     1 
  333   335     1 
  336   337     1 
  338   339     1 
  338   340     1 
  338   344     1 
  340   341     1 
  340   342     1 
  342   343     1 
  344   345     1 
  345   346     1 
  345   347     1 
  345   348     1 
  348   349     1 
  349   350     1 
  349   351     1 
  349   352     1 
  352   353     1 
  352   354     1 
  352   369     1 
  354   355     1 
  355   356     1 
  355   357     1 
  355   371     1 
  357   358     1 
  357   367     1 
  358   359     1 
  358   360     1 
  360   361     1 
  360   362     1 
  362   363     1 
  362   366     1 
  363   364     1 
  363   365     1 
  366   367     1 
  367   368     1 
  369   370     1 
  369   371     1 
  369   375     1 
  371   372     1 
  371   373     1 
  373   374     1 
  375   376     1 
  376   377     1 
  376   378     1 
  376   379     1 
  379   380     1 
  380   381     1 
  380   382     1 
  380   383     1 
  383   384     1 
  383   385     1 
  383   399     1 
  385   386     1 
  386   387     1 
  386   388     1 
  386   401     1 
  388   389     1 
  388   397     1 
  389   390     1 
  389   391     1 
  391   392     1 
  391   393     1 
  393   394     1 
  393   395     1 
  395   396     1 
  395   397     1 
  397   398     1 
  399   400     1 
  399   401     1 
  399   405     1 
  401   402     1 
  401   403     1 
  403   404     1 
  405   406     1 
  406   407     1 
  406   408     1 
  406   409     1 
  409   410     1 
  410   411     1 
  410   412     1 
  410   413     1 
  413   414     1 
  413   415     1 
  413   432     1 
  415   416     1 
  416   417     1 
  416   418     1 
  416   434     1 
  418   419     1 
  418   431     1 
  419   420     1 
  419   421     1 
  421   422     1 
  422   423     1 
  422   431     1 
  423   424     1 
  423   427     1 
  424   425     1 
  424   426     1 
  427   428     1 
  428   429     1 
  428   430     1 
  430   431     1 
  432   433     1 
  432   434     1 
  432   438     1 
  434   435     1 
  434   436     1 
  436   437     1 
  438   439     1 
  439   440     1 
  439   441     1 
  439   442     1 
  442   443     1 
  443   444     1 
  443   445     1 
  443   446     1 
  446   447     1 
  446   448     1 
  446   462     1 
  448   449     1 
  449   450     1 
  449   451     1 
  449   464     1 
  451   452     1 
  451   460     1 
  452   453     1 
  452   454     1 
  454   455     1 
  454   456     1 
  456   457     1 
  456   458     1 
  458   459     1 
  458   460     1 
  460   461     1 
  462   463     1 
  462   464     1 
  462   468     1 
  464   465     1 
  464   466     1 
  466   467     1 
  468   469     1 
  469   470     1 
  469   471     1 
  469   472     1 
  472   473     1 
  473   474     1 
  473   475     1 
  473   476     1 
  476   477     1 
  476   478     1 
  476   493     1 
  478   479     1 
  479   480     1 
  479   481     1 
  479   495     1 
  481   482     1 
  481   491     1 
  482   483     1 
  482   484     1 
  484   485     1 
  484   486     1 
  486   487     1 
  486   490     1 
  487   488     1 
  487   489     1 
  490   491     1 
  491   492     1 
  493   494     1 
  493   495     1 
  493   499     1 
  495   496     1 
  495   497     1 
  497   498     1 
  499   500     1 
  500   501     1 
  500   502     1 
  500   503     1 
  503   504     1 
  504   505     1 
  504   506     1 
  504   507     1 
  507   508     1 
  507   509     1 
  507   524     1 
  509   510     1 
  510   511     1 
  510   512     1 
  510   526     1 
  512   513     1 
  512   522     1 
  513   514     1 
  513   515     1 
  515   516     1 
  515   517     1 
  517   518     1 
  517   521     1 
  518   519     1 
  518   520     1 
  521   522     1 
  522   523     1 
  524   525     1 
  524   526     1 
  524   530     1 
  526   527     1 
  526   528     1 
  528   529     1 
  530   531     1 
  531   532     1 
  531   533     1 
  531   534     1 
  534   535     1 
  535   536     1 
  535   537     1 
  535   538     1 
  538   539     1 
  538   540     1 
  538   555     1 
  540   541     1 
  541   542     1 
  541   543     1 
  541   557     1 
  543   544     1 
  543   553     1 
  544   545     1 
  544   546     1 
  546   547     1 
  546   548     1 
  548   549     1 
  548   552     1 
  549   550     1 
  549   551     1 
  552   553     1 
  553   554     1 
  555   556     1 
  555   557     1 
  555   561     1 
  557   558     1 
  557   559     1 
  559   560     1 
  561   562     1 
  562   563     1 
  562   564     1 
  562   565     1 
  565   566     1 
  566   567     1 
  566   568     1 
  566   569     1 
  569   570     1 
  569   571     1 
  569   585     1 
  571   572     1 
  572   573     1 
  572   574     1 
  572   587     1 
  574   575     1 
  574   583     1 
  575   576     1 
  575   577     1 
  577   578     1 
  577   579     1 
  579   580     1 
  579   581     1 
  581   582     1 
  581   583     1 
  583   584     1 
  585   586     1 
  585   587     1 
  585   591     1 
  587   588     1 
  587   589     1 
  589   590     1 
  591   592     1 
  592   593     1 
  592   594     1 
  592   595     1 
  595   596     1 
  596   597     1 
  596   598     1 
  596   599     1 
  599   600     1 
  599   601     1 
  599   616     1 
  601   602     1 
  602   603     1 
  602   604     1 
  602   618     1 
  604   605     1 
  604   614     1 
  605   606     1 
  605   607     1 
  607   608     1 
  607   609     1 
  609   610     1 
  609   613     1 
  610   611     1 
  610   612     1 
  613   614     1 
  614   615     1 
  616   617     1 
  616   618     1 
  616   622     1 
  618   619     1 
  618   620     1 
  620   621     1 
  622   623     1 
  623   624     1 
  623   625     1 
  623   626     1 
  626   627     1 
  627   628     1 
  627   629     1 
  627   630     1 
  630   631     1 
  630   632     1 
  630   647     1 
  632   633     1 
  633   634     1 
  633   635     1 
  633   649     1 
  635   636     1 
  635   645     1 
  636   637     1 
  636   638     1 
  638   639     1 
  638   640     1 
  640   641     1 
  640   644     1 
  641   642     1 
  641   643     1 
  644   645     1 
  645   646     1 
  647   648     1 
  647   649     1 
  647   653     1 
  649   650     1 
  649   651     1 
  651   652     1 
  653   654     1 

[ pairs ]
;  ai    aj funct            c0            c1            c2            c3
    1     7     1 
    1     8     1 
    1    25     1 
    2     4     1 
    2     5     1 
    2     6     1 
    3     9     1 
    3    26     1 
    3    27     1 
    3    31     1 
    4     7     1 
    4     8     1 
    4    25     1 
    5     7     1 
    5     8     1 
    5    25     1 
    6    10     1 
    6    11     1 
    6    28     1 
    6    29     1 
    6    32     1 
    7     9     1 
    7    26     1 
    7    27     1 
    7    31     1 
    8    12     1 
    8    24     1 
    8    26     1 
    8    28     1 
    8    29     1 
    8    31     1 
    9    13     1 
    9    14     1 
    9    15     1 
    9    23     1 
    9    26     1 
    9    30     1 
    9    31     1 
   10    12     1 
   10    24     1 
   10    25     1 
   10    28     1 
   10    29     1 
   11    16     1 
   11    21     1 
   11    25     1 
   11    28     1 
   11    29     1 
   12    16     1 
   12    23     1 
   12    27     1 
   13    15     1 
   13    24     1 
   14    17     1 
   14    20     1 
   14    23     1 
   15    18     1 
   15    19     1 
   15    21     1 
   16    22     1 
   16    23     1 
   17    21     1 
   17    24     1 
   18    20     1 
   19    20     1 
   20    24     1 
   22    24     1 
   24    27     1 
   25    30     1 
   25    33     1 
   25    34     1 
   25    35     1 
   26    28     1 
   26    29     1 
   26    32     1 
   27    32     1 
   28    30     1 
   28    31     1 
   29    31     1 
   31    36     1 
   32    37     1 
   32    38     1 
   32    39     1 
   33    36     1 
   34    36     1 
   35    40     1 
   35    41     1 
   35    55     1 
   36    42     1 
   36    56     1 
   36    57     1 
   36    61     1 
   37    40     1 
   37    41     1 
   37    55     1 
   38    40     1 
   38    41     1 
   38    55     1 
   39    43     1 
   39    44     1 
   39    58     1 
   39    59     1 
   39    62     1 
   40    42     1 
   40    56     1 
   40    57     1 
   40    61     1 
   41    45     1 
   41    53     1 
   41    56     1 
   41    58     1 
   41    59     1 
   41    61     1 
   42    46     1 
   42    47     1 
   42    51     1 
   42    54     1 
   42    56     1 
   42    60     1 
   42    61     1 
   43    45     1 
   43    53     1 
   43    55     1 
   43    58     1 
   43    59     1 
   44    48     1 
   44    49     1 
   44    52     1 
   44    55     1 
   44    58     1 
   44    59     1 
   45    50     1 
   45    51     1 
   45    54     1 
   45    57     1 
   46    48     1 
   46    49     1 
   46    53     1 
   47    52     1 
   47    53     1 
   48    50     1 
   48    51     1 
   49    54     1 
   50    52     1 
   50    53     1 
   52    54     1 
   53    57     1 
   55    60     1 
   55    63     1 
   55    64     1 
   55    65     1 
   56    58     1 
   56    59     1 
   56    62     1 
   57    62     1 
   58    60     1 
   58    61     1 
   59    61     1 
   61    66     1 
   62    67     1 
   62    68     1 
   62    69     1 
   63    66     1 
   64    66     1 
   65    70     1 
   65    71     1 
   65    86     1 
   66    72     1 
   66    87     1 
   66    88     1 
   66    92     1 
   67    70     1 
   67    71     1 
   67    86     1 
   68    70     1 
   68    71     1 
   68    86     1 
   69    73     1 
   69    74     1 
   69    89     1 
   69    90     1 
   69    93     1 
   70    72     1 
   70    87     1 
   70    88     1 
   70    92     1 
   71    75     1 
   71    84     1 
   71    87     1 
   71    89     1 
   71    90     1 
   71    92     1 
   72    76     1 
   72    77     1 
   72    83     1 
   72    85     1 
   72    87     1 
   72    91     1 
   72    92     1 
   73    75     1 
   73    84     1 
   73    86     1 
   73    89     1 
   73    90     1 
   74    78     1 
   74    79     1 
   74    86     1 
   74    89     1 
   74    90     1 
   75    80     1 
   75    83     1 
   75    85     1 
   75    88     1 
   76    78     1 
   76    79     1 
   76    84     1 
   77    81     1 
   77    82     1 
   77    84     1 
   78    80     1 
   78    83     1 
   79    85     1 
   80    84     1 
   81    83     1 
   82    83     1 
   84    88     1 
   86    91     1 
   86    94     1 
   86    95     1 
   86    96     1 
   87    89     1 
   87    90     1 
   87    93     1 
   88    93     1 
   89    91     1 
   89    92     1 
   90    92     1 
   92    97     1 
   93    98     1 
   93    99     1 
   93   100     1 
   94    97     1 
   95    97     1 
   96   101     1 
   96   102     1 
   96   116     1 
   97   103     1 
   97   117     1 
   97   118     1 
   97   122     1 
   98   101     1 
   98   102     1 
   98   116     1 
   99   101     1 
   99   102     1 
   99   116     1 
  100   104     1 
  100   105     1 
  100   119     1 
  100   120     1 
  100   123     1 
  101   103     1 
  101   117     1 
  101   118     1 
  101   122     1 
  102   106     1 
  102   114     1 
  102   117     1 
  102   119     1 
  102   120     1 
  102   122     1 
  103   107     1 
  103   108     1 
  103   112     1 
  103   115     1 
  103   117     1 
  103   121     1 
  103   122     1 
  104   106     1 
  104   114     1 
  104   116     1 
  104   119     1 
  104   120     1 
  105   109     1 
  105   110     1 
  105   113     1 
  105   116     1 
  105   119     1 
  105   120     1 
  106   111     1 
  106   112     1 
  106   115     1 
  106   118     1 
  107   109     1 
  107   110     1 
  107   114     1 
  108   113     1 
  108   114     1 
  109   111     1 
  109   112     1 
  110   115     1 
  111   113     1 
  111   114     1 
  113   115     1 
  114   118     1 
  116   121     1 
  116   124     1 
  116   125     1 
  116   126     1 
  117   119     1 
  117   120     1 
  117   123     1 
  118   123     1 
  119   121     1 
  119   122     1 
  120   122     1 
  122   127     1 
  123   128     1 
  123   129     1 
  123   130     1 
  124   127     1 
  125   127     1 
  126   131     1 
  126   132     1 
  126   147     1 
  127   133     1 
  127   148     1 
  127   149     1 
  127   153     1 
  128   131     1 
  128   132     1 
  128   147     1 
  129   131     1 
  129   132     1 
  129   147     1 
  130   134     1 
  130   135     1 
  130   150     1 
  130   151     1 
  130   154     1 
  131   133     1 
  131   148     1 
  131   149     1 
  131   153     1 
  132   136     1 
  132   145     1 
  132   148     1 
  132   150     1 
  132   151     1 
  132   153     1 
  133   137     1 
  133   138     1 
  133   144     1 
  133   146     1 
  133   148     1 
  133   152     1 
  133   153     1 
  134   136     1 
  134   145     1 
  134   147     1 
  134   150     1 
  134   151     1 
  135   139     1 
  135   140     1 
  135   147     1 
  135   150     1 
  135   151     1 
  136   141     1 
  136   144     1 
  136   146     1 
  136   149     1 
  137   139     1 
  137   140     1 
  137   145     1 
  138   142     1 
  138   143     1 
  138   145     1 
  139   141     1 
  139   144     1 
  140   146     1 
  141   145     1 
  142   144     1 
  143   144     1 
  145   149     1 
  147   152     1 
  147   155     1 
  147   156     1 
  147   157     1 
  148   150     1 
  148   151     1 
  148   154     1 
  149   154     1 
  150   152     1 
  150   153     1 
  151   153     1 
  153   158     1 
  154   159     1 
  154   160     1 
  154   161     1 
  155   158     1 
  156   158     1 
  157   162     1 
  157   163     1 
  157   178     1 
  158   164     1 
  158   179     1 
  158   180     1 
  158   184     1 
  159   162     1 
  159   163     1 
  159   178     1 
  160   162     1 
  160   163     1 
  160   178     1 
  161   165     1 
  161   166     1 
  161   181     1 
  161   182     1 
  161   185     1 
  162   164     1 
  162   179     1 
  162   180     1 
  162   184     1 
  163   167     1 
  163   176     1 
  163   179     1 
  163   181     1 
  163   182     1 
  163   184     1 
  164   168     1 
  164   169     1 
  164   175     1 
  164   177     1 
  164   179     1 
  164   183     1 
  164   184     1 
  165   167     1 
  165   176     1 
  165   178     1 
  165   181     1 
  165   182     1 
  166   170     1 
  166   171     1 
  166   178     1 
  166   181     1 
  166   182     1 
  167   172     1 
  167   175     1 
  167   177     1 
  167   180     1 
  168   170     1 
  168   171     1 
  168   176     1 
  169   173     1 
  169   174     1 
  169   176     1 
  170   172     1 
  170   175     1 
  171   177     1 
  172   176     1 
  173   175     1 
  174   175     1 
  176   180     1 
  178   183     1 
  178   186     1 
  178   187     1 
  178   188     1 
  179   181     1 
  179   182     1 
  179   185     1 
  180   185     1 
  181   183     1 
  181   184     1 
  182   184     1 
  184   189     1 
  185   190     1 
  185   191     1 
  185   192     1 
  186   189     1 
  187   189     1 
  188   193     1 
  188   194     1 
  188   208     1 
  189   195     1 
  189   209     1 
  189   210     1 
  189   214     1 
  190   193     1 
  190   194     1 
  190   208     1 
  191   193     1 
  191   194     1 
  191   208     1 
  192   196     1 
  192   197     1 
  192   211     1 
  192   212     1 
  192   215     1 
  193   195     1 
  193   209     1 
  193   210     1 
  193   214     1 
  194   198     1 
  194   206     1 
  194   209     1 
  194   211     1 
  194   212     1 
  194   214     1 
  195   199     1 
  195   200     1 
  195   204     1 
  195   207     1 
  195   209     1 
  195   213     1 
  195   214     1 
  196   198     1 
  196   206     1 
  196   208     1 
  196   211     1 
  196   212     1 
  197   201     1 
  197   202     1 
  197   205     1 
  197   208     1 
  197   211     1 
  197   212     1 
  198   203     1 
  198   204     1 
  198   207     1 
  198   210     1 
  199   201     1 
  199   202     1 
  199   206     1 
  200   205     1 
  200   206     1 
  201   203     1 
  201   204     1 
  202   207     1 
  203   205     1 
  203   206     1 
  205   207     1 
  206   210     1 
  208   213     1 
  208   216     1 
  208   217     1 
  208   218     1 
  209   211     1 
  209   212     1 
  209   215     1 
  210   215     1 
  211   213     1 
  211   214     1 
  212   214     1 
  214   219     1 
  215   220     1 
  215   221     1 
  215   222     1 
  216   219     1 
  217   219     1 
  218   223     1 
  218   224     1 
  218   241     1 
  219   225     1 
  219   242     1 
  219   243     1 
  219   247     1 
  220   223     1 
  220   224     1 
  220   241     1 
  221   223     1 
  221   224     1 
  221   241     1 
  222   226     1 
  222   227     1 
  222   244     1 
  222   245     1 
  222   248     1 
  223   225     1 
  223   242     1 
  223   243     1 
  223   247     1 
  224   228     1 
  224   240     1 
  224   242     1 
  224   244     1 
  224   245     1 
  224   247     1 
  225   229     1 
  225   230     1 
  225   231     1 
  225   239     1 
  225   242     1 
  225   246     1 
  225   247     1 
  226   228     1 
  226   240     1 
  226   241     1 
  226   244     1 
  226   245     1 
  227   232     1 
  227   237     1 
  227   241     1 
  227   244     1 
  227   245     1 
  228   232     1 
  228   239     1 
  228   243     1 
  229   231     1 
  229   240     1 
  230   233     1 
  230   236     1 
  230   239     1 
  231   234     1 
  231   235     1 
  231   237     1 
  232   238     1 
  232   239     1 
  233   237     1 
  233   240     1 
  234   236     1 
  235   236     1 
  236   240     1 
  238   240     1 
  240   243     1 
  241   246     1 
  241   249     1 
  241   250     1 
  241   251     1 
  242   244     1 
  242   245     1 
  242   248     1 
  243   248     1 
  244   246     1 
  244   247     1 
  245   247     1 
  247   252     1 
  248   253     1 
  248   254     1 
  248   255     1 
  249   252     1 
  250   252     1 
  251   256     1 
  251   257     1 
  251   274     1 
  252   258     1 
  252   275     1 
  252   276     1 
  252   280     1 
  253   256     1 
  253   257     1 
  253   274     1 
  254   256     1 
  254   257     1 
  254   274     1 
  255   259     1 
  255   260     1 
  255   277     1 
  255   278     1 
  255   281     1 
  256   258     1 
  256   275     1 
  256   276     1 
  256   280     1 
  257   261     1 
  257   273     1 
  257   275     1 
  257   277     1 
  257   278     1 
  257   280     1 
  258   262     1 
  258   263     1 
  258   264     1 
  258   272     1 
  258   275     1 
  258   279     1 
  258   280     1 
  259   261     1 
  259   273     1 
  259   274     1 
  259   277     1 
  259   278     1 
  260   265     1 
  260   270     1 
  260   274     1 
  260   277     1 
  260   278     1 
  261   265     1 
  261   272     1 
  261   276     1 
  262   264     1 
  262   273     1 
  263   266     1 
  263   269     1 
  263   272     1 
  264   267     1 
  264   268     1 
  264   270     1 
  265   271     1 
  265   272     1 
  266   270     1 
  266   273     1 
  267   269     1 
  268   269     1 
  269   273     1 
  271   273     1 
  273   276     1 
  274   279     1 
  274   282     1 
  274   283     1 
  274   284     1 
  275   277     1 
  275   278     1 
  275   281     1 
  276   281     1 
  277   279     1 
  277   280     1 
  278   280     1 
  280   285     1 
  281   286     1 
  281   287     1 
  281   288     1 
  282   285     1 
  283   285     1 
  284   289     1 
  284   290     1 
  284   304     1 
  285   291     1 
  285   305     1 
  285   306     1 
  285   310     1 
  286   289     1 
  286   290     1 
  286   304     1 
  287   289     1 
  287   290     1 
  287   304     1 
  288   292     1 
  288   293     1 
  288   307     1 
  288   308     1 
  288   311     1 
  289   291     1 
  289   305     1 
  289   306     1 
  289   310     1 
  290   294     1 
  290   302     1 
  290   305     1 
  290   307     1 
  290   308     1 
  290   310     1 
  291   295     1 
  291   296     1 
  291   300     1 
  291   303     1 
  291   305     1 
  291   309     1 
  291   310     1 
  292   294     1 
  292   302     1 
  292   304     1 
  292   307     1 
  292   308     1 
  293   297     1 
  293   298     1 
  293   301     1 
  293   304     1 
  293   307     1 
  293   308     1 
  294   299     1 
  294   300     1 
  294   303     1 
  294   306     1 
  295   297     1 
  295   298     1 
  295   302     1 
  296   301     1 
  296   302     1 
  297   299     1 
  297   300     1 
  298   303     1 
  299   301     1 
  299   302     1 
  301   303     1 
  302   306     1 
  304   309     1 
  304   312     1 
  304   313     1 
  304   314     1 
  305   307     1 
  305   308     1 
  305   311     1 
  306   311     1 
  307   309     1 
  307   310     1 
  308   310     1 
  310   315     1 
  311   316     1 
  311   317     1 
  311   318     1 
  312   315     1 
  313   315     1 
  314   319     1 
  314   320     1 
  314   338     1 
  315   321     1 
  315   339     1 
  315   340     1 
  315   344     1 
  316   319     1 
  316   320     1 
  316   338     1 
  317   319     1 
  317   320     1 
  317   338     1 
  318   322     1 
  318   323     1 
  318   341     1 
  318   342     1 
  318   345     1 
  319   321     1 
  319   339     1 
  319   340     1 
  319   344     1 
  320   324     1 
  320   337     1 
  320   339     1 
  320   341     1 
  320   342     1 
  320   344     1 
  321   325     1 
  321   326     1 
  321   327     1 
  321   336     1 
  321   339     1 
  321   343     1 
  321   344     1 
  322   324     1 
  322   337     1 
  322   338     1 
  322   341     1 
  322   342     1 
  323   328     1 
  323   332     1 
  323   338     1 
  323   341     1 
  323   342     1 
  324   328     1 
  324   336     1 
  324   340     1 
  325   327     1 
  325   337     1 
  326   329     1 
  326   330     1 
  326   336     1 
  327   331     1 
  327   332     1 
  328   333     1 
  328   336     1 
  329   331     1 
  329   332     1 
  329   337     1 
  330   334     1 
  330   335     1 
  330   337     1 
  331   333     1 
  331   336     1 
  333   337     1 
  334   336     1 
  335   336     1 
  337   340     1 
  338   343     1 
  338   346     1 
  338   347     1 
  338   348     1 
  339   341     1 
  339   342     1 
  339   345     1 
  340   345     1 
  341   343     1 
  341   344     1 
  342   344     1 
  344   349     1 
  345   350     1 
  345   351     1 
  345   352     1 
  346   349     1 
  347   349     1 
  348   353     1 
  348   354     1 
  348   369     1 
  349   355     1 
  349   370     1 
  349   371     1 
  349   375     1 
  350   353     1 
  350   354     1 
  350   369     1 
  351   353     1 
  351   354     1 
  351   369     1 
  352   356     1 
  352   357     1 
  352   372     1 
  352   373     1 
  352   376     1 
  353   355     1 
  353   370     1 
  353   371     1 
  353   375     1 
  354   358     1 
  354   367     1 
  354   370     1 
  354   372     1 
  354   373     1 
  354   375     1 
  355   359     1 
  355   360     1 
  355   366     1 
  355   368     1 
  355   370     1 
  355   374     1 
  355   375     1 
  356   358     1 
  356   367     1 
  356   369     1 
  356   372     1 
  356   373     1 
  357   361     1 
  357   362     1 
  357   369     1 
  357   372     1 
  357   373     1 
  358   363     1 
  358   366     1 
  358   368     1 
  358   371     1 
  359   361     1 
  359   362     1 
  359   367     1 
  360   364     1 
  360   365     1 
  360   367     1 
  361   363     1 
  361   366     1 
  362   368     1 
  363   367     1 
  364   366     1 
  365   366     1 
  367   371     1 
  369   374     1 
  369   377     1 
  369   378     1 
  369   379     1 
  370   372     1 
  370   373     1 
  370   376     1 
  371   376     1 
  372   374     1 
  372   375     1 
  373   375     1 
  375   380     1 
  376   381     1 
  376   382     1 
  376   383     1 
  377   380     1 
  378   380     1 
  379   384     1 
  379   385     1 
  379   399     1 
  380   386     1 
  380   400     1 
  380   401     1 
  380   405     1 
  381   384     1 
  381   385     1 
  381   399     1 
  382   384     1 
  382   385     1 
  382   399     1 
  383   387     1 
  383   388     1 
  383   402     1 
  383   403     1 
  383   406     1 
  384   386     1 
  384   400     1 
  384   401     1 
  384   405     1 
  385   389     1 
  385   397     1 
  385   400     1 
  385   402     1 
  385   403     1 
  385   405     1 
  386   390     1 
  386   391     1 
  386   395     1 
  386   398     1 
  386   400     1 
  386   404     1 
  386   405     1 
  387   389     1 
  387   397     1 
  387   399     1 
  387   402     1 
  387   403     1 
  388   392     1 
  388   393     1 
  388   396     1 
  388   399     1 
  388   402     1 
  388   403     1 
  389   394     1 
  389   395     1 
  389   398     1 
  389   401     1 
  390   392     1 
  390   393     1 
  390   397     1 
  391   396     1 
  391   397     1 
  392   394     1 
  392   395     1 
  393   398     1 
  394   396     1 
  394   397     1 
  396   398     1 
  397   401     1 
  399   404     1 
  399   407     1 
  399   408     1 
  399   409     1 
  400   402     1 
  400   403     1 
  400   406     1 
  401   406     1 
  402   404     1 
  402   405     1 
  403   405     1 
  405   410     1 
  406   411     1 
  406   412     1 
  406   413     1 
  407   410     1 
  408   410     1 
  409   414     1 
  409   415     1 
  409   432     1 
  410   416     1 
  410   433     1 
  410   434     1 
  410   438     1 
  411   414     1 
  411   415     1 
  411   432     1 
  412   414     1 
  412   415     1 
  412   432     1 
  413   417     1 
  413   418     1 
  413   435     1 
  413   436     1 
  413   439     1 
  414   416     1 
  414   433     1 
  414   434     1 
  414   438     1 
  415   419     1 
  415   431     1 
  415   433     1 
  415   435     1 
  415   436     1 
  415   438     1 
  416   420     1 
  416   421     1 
  416   422     1 
  416   430     1 
  416   433     1 
  416   437     1 
  416   438     1 
  417   419     1 
  417   431     1 
  417   432     1 
  417   435     1 
  417   436     1 
  418   423     1 
  418   428     1 
  418   432     1 
  418   435     1 
  418   436     1 
  419   423     1 
  419   430     1 
  419   434     1 
  420   422     1 
  420   431     1 
  421   424     1 
  421   427     1 
  421   430     1 
  422   425     1 
  422   426     1 
  422   428     1 
  423   429     1 
  423   430     1 
  424   428     1 
  424   431     1 
  425   427     1 
  426   427     1 
  427   431     1 
  429   431     1 
  431   434     1 
  432   437     1 
  432   440     1 
  432   441     1 
  432   442     1 
  433   435     1 
  433   436     1 
  433   439     1 
  434   439     1 
  435   437     1 
  435   438     1 
  436   438     1 
  438   443     1 
  439   444     1 
  439   445     1 
  439   446     1 
  440   443     1 
  441   443     1 
  442   447     1 
  442   448     1 
  442   462     1 
  443   449     1 
  443   463     1 
  443   464     1 
  443   468     1 
  444   447     1 
  444   448     1 
  444   462     1 
  445   447     1 
  445   448     1 
  445   462     1 
  446   450     1 
  446   451     1 
  446   465     1 
  446   466     1 
  446   469     1 
  447   449     1 
  447   463     1 
  447   464     1 
  447   468     1 
  448   452     1 
  448   460     1 
  448   463     1 
  448   465     1 
  448   466     1 
  448   468     1 
  449   453     1 
  449   454     1 
  449   458     1 
  449   461     1 
  449   463     1 
  449   467     1 
  449   468     1 
  450   452     1 
  450   460     1 
  450   462     1 
  450   465     1 
  450   466     1 
  451   455     1 
  451   456     1 
  451   459     1 
  451   462     1 
  451   465     1 
  451   466     1 
  452   457     1 
  452   458     1 
  452   461     1 
  452   464     1 
  453   455     1 
  453   456     1 
  453   460     1 
  454   459     1 
  454   460     1 
  455   457     1 
  455   458     1 
  456   461     1 
  457   459     1 
  457   460     1 
  459   461     1 
  460   464     1 
  462   467     1 
  462   470     1 
  462   471     1 
  462   472     1 
  463   465     1 
  463   466     1 
  463   469     1 
  464   469     1 
  465   467     1 
  465   468     1 
  466   468     1 
  468   473     1 
  469   474     1 
  469   475     1 
  469   476     1 
  470   473     1 
  471   473     1 
  472   477     1 
  472   478     1 
  472   493     1 
  473   479     1 
  473   494     1 
  473   495     1 
  473   499     1 
  474   477     1 
  474   478     1 
  474   493     1 
  475   477     1 
  475   478     1 
  475   493     1 
  476   480     1 
  476   481     1 
  476   496     1 
  476   497     1 
  476   500     1 
  477   479     1 
  477   494     1 
  477   495     1 
  477   499     1 
  478   482     1 
  478   491     1 
  478   494     1 
  478   496     1 
  478   497     1 
  478   499     1 
  479   483     1 
  479   484     1 
  479   490     1 
  479   492     1 
  479   494     1 
  479   498     1 
  479   499     1 
  480   482     1 
  480   491     1 
  480   493     1 
  480   496     1 
  480   497     1 
  481   485     1 
  481   486     1 
  481   493     1 
  481   496     1 
  481   497     1 
  482   487     1 
  482   490     1 
  482   492     1 
  482   495     1 
  483   485     1 
  483   486     1 
  483   491     1 
  484   488     1 
  484   489     1 
  484   491     1 
  485   487     1 
  485   490     1 
  486   492     1 
  487   491     1 
  488   490     1 
  489   490     1 
  491   495     1 
  493   498     1 
  493   501     1 
  493   502     1 
  493   503     1 
  494   496     1 
  494   497     1 
  494   500     1 
  495   500     1 
  496   498     1 
  496   499     1 
  497   499     1 
  499   504     1 
  500   505     1 
  500   506     1 
  500   507     1 
  501   504     1 
  502   504     1 
  503   508     1 
  503   509     1 
  503   524     1 
  504   510     1 
  504   525     1 
  504   526     1 
  504   530     1 
  505   508     1 
  505   509     1 
  505   524     1 
  506   508     1 
  506   509     1 
  506   524     1 
  507   511     1 
  507   512     1 
  507   527     1 
  507   528     1 
  507   531     1 
  508   510     1 
  508   525     1 
  508   526     1 
  508   530     1 
  509   513     1 
  509   522     1 
  509   525     1 
  509   527     1 
  509   528     1 
  509   530     1 
  510   514     1 
  510   515     1 
  510   521     1 
  510   523     1 
  510   525     1 
  510   529     1 
  510   530     1 
  511   513     1 
  511   522     1 
  511   524     1 
  511   527     1 
  511   528     1 
  512   516     1 
  512   517     1 
  512   524     1 
  512   527     1 
  512   528     1 
  513   518     1 
  513   521     1 
  513   523     1 
  513   526     1 
  514   516     1 
  514   517     1 
  514   522     1 
  515   519     1 
  515   520     1 
  515   522     1 
  516   518     1 
  516   521     1 
  517   523     1 
  518   522     1 
  519   521     1 
  520   521     1 
  522   526     1 
  524   529     1 
  524   532     1 
  524   533     1 
  524   534     1 
  525   527     1 
  525   528     1 
  525   531     1 
  526   531     1 
  527   529     1 
  527   530     1 
  528   530     1 
  530   535     1 
  531   536     1 
  531   537     1 
  531   538     1 
  532   535     1 
  533   535     1 
  534   539     1 
  534   540     1 
  534   555     1 
  535   541     1 
  535   556     1 
  535   557     1 
  535   561     1 
  536   539     1 
  536   540     1 
  536   555     1 
  537   539     1 
  537   540     1 
  537   555     1 
  538   542     1 
  538   543     1 
  538   558     1 
  538   559     1 
  538   562     1 
  539   541     1 
  539   556     1 
  539   557     1 
  539   561     1 
  540   544     1 
  540   553     1 
  540   556     1 
  540   558     1 
  540   559     1 
  540   561     1 
  541   545     1 
  541   546     1 
  541   552     1 
  541   554     1 
  541   556     1 
  541   560     1 
  541   561     1 
  542   544     1 
  542   553     1 
  542   555     1 
  542   558     1 
  542   559     1 
  543   547     1 
  543   548     1 
  543   555     1 
  543   558     1 
  543   559     1 
  544   549     1 
  544   552     1 
  544   554     1 
  544   557     1 
  545   547     1 
  545   548     1 
  545   553     1 
  546   550     1 
  546   551     1 
  546   553     1 
  547   549     1 
  547   552     1 
  548   554     1 
  549   553     1 
  550   552     1 
  551   552     1 
  553   557     1 
  555   560     1 
  555   563     1 
  555   564     1 
  555   565     1 
  556   558     1 
  556   559     1 
  556   562     1 
  557   562     1 
  558   560     1 
  558   561     1 
  559   561     1 
  561   566     1 
  562   567     1 
  562   568     1 
  562   569     1 
  563   566     1 
  564   566     1 
  565   570     1 
  565   571     1 
  565   585     1 
  566   572     1 
  566   586     1 
  566   587     1 
  566   591     1 
  567   570     1 
  567   571     1 
  567   585     1 
  568   570     1 
  568   571     1 
  568   585     1 
  569   573     1 
  569   574     1 
  569   588     1 
  569   589     1 
  569   592     1 
  570   572     1 
  570   586     1 
  570   587     1 
  570   591     1 
  571   575     1 
  571   583     1 
  571   586     1 
  571   588     1 
  571   589     1 
  571   591     1 
  572   576     1 
  572   577     1 
  572   581     1 
  572   584     1 
  572   586     1 
  572   590     1 
  572   591     1 
  573   575     1 
  573   583     1 
  573   585     1 
  573   588     1 
  573   589     1 
  574   578     1 
  574   579     1 
  574   582     1 
  574   585     1 
  574   588     1 
  574   589     1 
  575   580     1 
  575   581     1 
  575   584     1 
  575   587     1 
  576   578     1 
  576   579     1 
  576   583     1 
  577   582     1 
  577   583     1 
  578   580     1 
  578   581     1 
  579   584     1 
  580   582     1 
  580   583     1 
  582   584     1 
  583   587     1 
  585   590     1 
  585   593     1 
  585   594     1 
  585   595     1 
  586   588     1 
  586   589     1 
  586   592     1 
  587   592     1 
  588   590     1 
  588   591     1 
  589   591     1 
  591   596     1 
  592   597     1 
  592   598     1 
  592   599     1 
  593   596     1 
  594   596     1 
  595   600     1 
  595   601     1 
  595   616     1 
  596   602     1 
  596   617     1 
  596   618     1 
  596   622     1 
  597   600     1 
  597   601     1 
  597   616     1 
  598   600     1 
  598   601     1 
  598   616     1 
  599   603     1 
  599   604     1 
  599   619     1 
  599   620     1 
  599   623     1 
  600   602     1 
  600   617     1 
  600   618     1 
  600   622     1 
  601   605     1 
  601   614     1 
  601   617     1 
  601   619     1 
  601   620     1 
  601   622     1 
  602   606     1 
  602   607     1 
  602   613     1 
  602   615     1 
  602   617     1 
  602   621     1 
  602   622     1 
  603   605     1 
  603   614     1 
  603   616     1 
  603   619     1 
  603   620     1 
  604   608     1 
  604   609     1 
  604   616     1 
  604   619     1 
  604   620     1 
  605   610     1 
  605   613     1 
  605   615     1 
  605   618     1 
  606   608     1 
  606   609     1 
  606   614     1 
  607   611     1 
  607   612     1 
  607   614     1 
  608   610     1 
  608   613     1 
  609   615     1 
  610   614     1 
  611   613     1 
  612   613     1 
  614   618     1 
  616   621     1 
  616   624     1 
  616   625     1 
  616   626     1 
  617   619     1 
  617   620     1 
  617   623     1 
  618   623     1 
  619   621     1 
  619   622     1 
  620   622     1 
  622   627     1 
  623   628     1 
  623   629     1 
  623   630     1 
  624   627     1 
  625   627     1 
  626   631     1 
  626   632     1 
  626   647     1 
  627   633     1 
  627   648     1 
  627   649     1 
  627   653     1 
  628   631     1 
  628   632     1 
  628   647     1 
  629   631     1 
  629   632     1 
  629   647     1 
  630   634     1 
  630   635     1 
  630   650     1 
  630   651     1 
  630   654     1 
  631   633     1 
  631   648     1 
  631   649     1 
  631   653     1 
  632   636     1 
  632   645     1 
  632   648     1 
  632   650     1 
  632   651     1 
  632   653     1 
  633   637     1 
  633   638     1 
  633   644     1 
  633   646     1 
  633   648     1 
  633   652     1 
  633   653     1 
  634   636     1 
  634   645     1 
  634   647     1 
  634   650     1 
  634   651     1 
  635   639     1 
  635   640     1 
  635   647     1 
  635   650     1 
  635   651     1 
  636   641     1 
  636   644     1 
  636   646     1 
  636   649     1 
  637   639     1 
  637   640     1 
  637   645     1 
  638   642     1 
  638   643     1 
  638   645     1 
  639   641     1 
  639   644     1 
  640   646     1 
  641   645     1 
  642   644     1 
  643   644     1 
  645   649     1 
  647   652     1 
  648   650     1 
  648   651     1 
  648   654     1 
  649   654     1 
  650   652     1 
  650   653     1 
  651   653     1 

[ angles ]
;  ai    aj    ak funct            c0            c1            c2            c3
    2     1     3     1 
    1     3     4     1 
    1     3     5     1 
    1     3     6     1 
    4     3     5     1 
    4     3     6     1 
    5     3     6     1 
    3     6     7     1 
    3     6     8     1 
    3     6    25     1 
    7     6     8     1 
    7     6    25     1 
    8     6    25     1 
    6     8     9     1 
    8     9    10     1 
    8     9    11     1 
    8     9    27     1 
   10     9    11     1 
   10     9    27     1 
   11     9    27     1 
    9    11    12     1 
    9    11    24     1 
   12    11    24     1 
   11    12    13     1 
   11    12    14     1 
   13    12    14     1 
   12    14    15     1 
   14    15    16     1 
   14    15    24     1 
   16    15    24     1 
   15    16    17     1 
   15    16    20     1 
   17    16    20     1 
   16    17    18     1 
   16    17    19     1 
   18    17    19     1 
   16    20    21     1 
   20    21    22     1 
   20    21    23     1 
   22    21    23     1 
   21    23    24     1 
   11    24    15     1 
   11    24    23     1 
   15    24    23     1 
    6    25    26     1 
    6    25    27     1 
    6    25    31     1 
   26    25    27     1 
   26    25    31     1 
   27    25    31     1 
    9    27    25     1 
    9    27    28     1 
    9    27    29     1 
   25    27    28     1 
   25    27    29     1 
   28    27    29     1 
   27    29    30     1 
   25    31    32     1 
   31    32    33     1 
   31    32    34     1 
   31    32    35     1 
   33    32    34     1 
   33    32    35     1 
   34    32    35     1 
   32    35    36     1 
   35    36    37     1 
   35    36    38     1 
   35    36    39     1 
   37    36    38     1 
   37    36    39     1 
   38    36    39     1 
   36    39    40     1 
   36    39    41     1 
   36    39    55     1 
   40    39    41     1 
   40    39    55     1 
   41    39    55     1 
   39    41    42     1 
   41    42    43     1 
   41    42    44     1 
   41    42    57     1 
   43    42    44     1 
   43    42    57     1 
   44    42    57     1 
   42    44    45     1 
   42    44    53     1 
   45    44    53     1 
   44    45    46     1 
   44    45    47     1 
   46    45    47     1 
   45    47    48     1 
   45    47    49     1 
   48    47    49     1 
   47    49    50     1 
   47    49    51     1 
   50    49    51     1 
   49    51    52     1 
   49    51    53     1 
   52    51    53     1 
   44    53    51     1 
   44    53    54     1 
   51    53    54     1 
   39    55    56     1 
   39    55    57     1 
   39    55    61     1 
   56    55    57     1 
   56    55    61     1 
   57    55    61     1 
   42    57    55     1 
   42    57    58     1 
   42    57    59     1 
   55    57    58     1 
   55    57    59     1 
   58    57    59     1 
   57    59    60     1 
   55    61    62     1 
   61    62    63     1 
   61    62    64     1 
   61    62    65     1 
   63    62    64     1 
   63    62    65     1 
   64    62    65     1 
   62    65    66     1 
   65    66    67     1 
   65    66    68     1 
   65    66    69     1 
   67    66    68     1 
   67    66    69     1 
   68    66    69     1 
   66    69    70     1 
   66    69    71     1 
   66    69    86     1 
   70    69    71     1 
   70    69    86     1 
   71    69    86     1 
   69    71    72     1 
   71    72    73     1 
   71    72    74     1 
   71    72    88     1 
   73    72    74     1 
   73    72    88     1 
   74    72    88     1 
   72    74    75     1 
   72    74    84     1 
   75    74    84     1 
   74    75    76     1 
   74    75    77     1 
   76    75    77     1 
   75    77    78     1 
   75    77    79     1 
   78    77    79     1 
   77    79    80     1 
   77    79    83     1 
   80    79    83     1 
   79    80    81     1 
   79    80    82     1 
   81    80    82     1 
   79    83    84     1 
   74    84    83     1 
   74    84    85     1 
   83    84    85     1 
   69    86    87     1 
   69    86    88     1 
   69    86    92     1 
   87    86    88     1 
   87    86    92     1 
   88    86    92     1 
   72    88    86     1 
   72    88    89     1 
   72    88    90     1 
   86    88    89     1 
   86    88    90     1 
   89    88    90     1 
   88    90    91     1 
   86    92    93     1 
   92    93    94     1 
   92    93    95     1 
   92    93    96     1 
   94    93    95     1 
   94    93    96     1 
   95    93    96     1 
   93    96    97     1 
   96    97    98     1 
   96    97    99     1 
   96    97   100     1 
   98    97    99     1 
   98    97   100     1 
   99    97   100     1 
   97   100   101     1 
   97   100   102     1 
   97   100   116     1 
  101   100   102     1 
  101   100   116     1 
  102   100   116     1 
  100   102   103     1 
  102   103   104     1 
  102   103   105     1 
  102   103   118     1 
  104   103   105     1 
  104   103   118     1 
  105   103   118     1 
  103   105   106     1 
  103   105   114     1 
  106   105   114     1 
  105   106   107     1 
  105   106   108     1 
  107   106   108     1 
  106   108   109     1 
  106   108   110     1 
  109   108   110     1 
  108   110   111     1 
  108   110   112     1 
  111   110   112     1 
  110   112   113     1 
  110   112   114     1 
  113   112   114     1 
  105   114   112     1 
  105   114   115     1 
  112   114   115     1 
  100   116   117     1 
  100   116   118     1 
  100   116   122     1 
  117   116   118     1 
  117   116   122     1 
  118   116   122     1 
  103   118   116     1 
  103   118   119     1 
  103   118   120     1 
  116   118   119     1 
  116   118   120     1 
  119   118   120     1 
  118   120   121     1 
  116   122   123     1 
  122   123   124     1 
  122   123   125     1 
  122   123   126     1 
  124   123   125     1 
  124   123   126     1 
  125   123   126     1 
  123   126   127     1 
  126   127   128     1 
  126   127   129     1 
  126   127   130     1 
  128   127   129     1 
  128   127   130     1 
  129   127   130     1 
  127   130   131     1 
  127   130   132     1 
  127   130   147     1 
  131   130   132     1 
  131   130   147     1 
  132   130   147     1 
  130   132   133     1 
  132   133   134     1 
  132   133   135     1 
  132   133   149     1 
  134   133   135     1 
  134   133   149     1 
  135   133   149     1 
  133   135   136     1 
  133   135   145     1 
  136   135   145     1 
  135   136   137     1 
  135   136   138     1 
  137   136   138     1 
  136   138   139     1 
  136   138   140     1 
  139   138   140     1 
  138   140   141     1 
  138   140   144     1 
  141   140   144     1 
  140   141   142     1 
  140   141   143     1 
  142   141   143     1 
  140   144   145     1 
  135   145   144     1 
  135   145   146     1 
  144   145   146     1 
  130   147   148     1 
  130   147   149     1 
  130   147   153     1 
  148   147   149     1 
  148   147   153     1 
  149   147   153     1 
  133   149   147     1 
  133   149   150     1 
  133   149   151     1 
  147   149   150     1 
  147   149   151     1 
  150   149   151     1 
  149   151   152     1 
  147   153   154     1 
  153   154   155     1 
  153   154   156     1 
  153   154   157     1 
  155   154   156     1 
  155   154   157     1 
  156   154   157     1 
  154   157   158     1 
  157   158   159     1 
  157   158   160     1 
  157   158   161     1 
  159   158   160     1 
  159   158   161     1 
  160   158   161     1 
  158   161   162     1 
  158   161   163     1 
  158   161   178     1 
  162   161   163     1 
  162   161   178     1 
  163   161   178     1 
  161   163   164     1 
  163   164   165     1 
  163   164   166     1 
  163   164   180     1 
  165   164   166     1 
  165   164   180     1 
  166   164   180     1 
  164   166   167     1 
  164   166   176     1 
  167   166   176     1 
  166   167   168     1 
  166   167   169     1 
  168   167   169     1 
  167   169   170     1 
  167   169   171     1 
  170   169   171     1 
  169   171   172     1 
  169   171   175     1 
  172   171   175     1 
  171   172   173     1 
  171   172   174     1 
  173   172   174     1 
  171   175   176     1 
  166   176   175     1 
  166   176   177     1 
  175   176   177     1 
  161   178   179     1 
  161   178   180     1 
  161   178   184     1 
  179   178   180     1 
  179   178   184     1 
  180   178   184     1 
  164   180   178     1 
  164   180   181     1 
  164   180   182     1 
  178   180   181     1 
  178   180   182     1 
  181   180   182     1 
  180   182   183     1 
  178   184   185     1 
  184   185   186     1 
  184   185   187     1 
  184   185   188     1 
  186   185   187     1 
  186   185   188     1 
  187   185   188     1 
  185   188   189     1 
  188   189   190     1 
  188   189   191     1 
  188   189   192     1 
  190   189   191     1 
  190   189   192     1 
  191   189   192     1 
  189   192   193     1 
  189   192   194     1 
  189   192   208     1 
  193   192   194     1 
  193   192   208     1 
  194   192   208     1 
  192   194   195     1 
  194   195   196     1 
  194   195   197     1 
  194   195   210     1 
  196   195   197     1 
  196   195   210     1 
  197   195   210     1 
  195   197   198     1 
  195   197   206     1 
  198   197   206     1 
  197   198   199     1 
  197   198   200     1 
  199   198   200     1 
  198   200   201     1 
  198   200   202     1 
  201   200   202     1 
  200   202   203     1 
  200   202   204     1 
  203   202   204     1 
  202   204   205     1 
  202   204   206     1 
  205   204   206     1 
  197   206   204     1 
  197   206   207     1 
  204   206   207     1 
  192   208   209     1 
  192   208   210     1 
  192   208   214     1 
  209   208   210     1 
  209   208   214     1 
  210   208   214     1 
  195   210   208     1 
  195   210   211     1 
  195   210   212     1 
  208   210   211     1 
  208   210   212     1 
  211   210   212     1 
  210   212   213     1 
  208   214   215     1 
  214   215   216     1 
  214   215   217     1 
  214   215   218     1 
  216   215   217     1 
  216   215   218     1 
  217   215   218     1 
  215   218   219     1 
  218   219   220     1 
  218   219   221     1 
  218   219   222     1 
  220   219   221     1 
  220   219   222     1 
  221   219   222     1 
  219   222   223     1 
  219   222   224     1 
  219   222   241     1 
  223   222   224     1 
  223   222   241     1 
  224   222   241     1 
  222   224   225     1 
  224   225   226     1 
  224   225   227     1 
  224   225   243     1 
  226   225   227     1 
  226   225   243     1 
  227   225   243     1 
  225   227   228     1 
  225   227   240     1 
  228   227   240     1 
  227   228   229     1 
  227   228   230     1 
  229   228   230     1 
  228   230   231     1 
  230   231   232     1 
  230   231   240     1 
  232   231   240     1 
  231   232   233     1 
  231   232   236     1 
  233   232   236     1 
  232   233   234     1 
  232   233   235     1 
  234   233   235     1 
  232   236   237     1 
  236   237   238     1 
  236   237   239     1 
  238   237   239     1 
  237   239   240     1 
  227   240   231     1 
  227   240   239     1 
  231   240   239     1 
  222   241   242     1 
  222   241   243     1 
  222   241   247     1 
  242   241   243     1 
  242   241   247     1 
  243   241   247     1 
  225   243   241     1 
  225   243   244     1 
  225   243   245     1 
  241   243   244     1 
  241   243   245     1 
  244   243   245     1 
  243   245   246     1 
  241   247   248     1 
  247   248   249     1 
  247   248   250     1 
  247   248   251     1 
  249   248   250     1 
  249   248   251     1 
  250   248   251     1 
  248   251   252     1 
  251   252   253     1 
  251   252   254     1 
  251   252   255     1 
  253   252   254     1 
  253   252   255     1 
  254   252   255     1 
  252   255   256     1 
  252   255   257     1 
  252   255   274     1 
  256   255   257     1 
  256   255   274     1 
  257   255   274     1 
  255   257   258     1 
  257   258   259     1 
  257   258   260     1 
  257   258   276     1 
  259   258   260     1 
  259   258   276     1 
  260   258   276     1 
  258   260   261     1 
  258   260   273     1 
  261   260   273     1 
  260   261   262     1 
  260   261   263     1 
  262   261   263     1 
  261   263   264     1 
  263   264   265     1 
  263   264   273     1 
  265   264   273     1 
  264   265   266     1 
  264   265   269     1 
  266   265   269     1 
  265   266   267     1 
  265   266   268     1 
  267   266   268     1 
  265   269   270     1 
  269   270   271     1 
  269   270   272     1 
  271   270   272     1 
  270   272   273     1 
  260   273   264     1 
  260   273   272     1 
  264   273   272     1 
  255   274   275     1 
  255   274   276     1 
  255   274   280     1 
  275   274   276     1 
  275   274   280     1 
  276   274   280     1 
  258   276   274     1 
  258   276   277     1 
  258   276   278     1 
  274   276   277     1 
  274   276   278     1 
  277   276   278     1 
  276   278   279     1 
  274   280   281     1 
  280   281   282     1 
  280   281   283     1 
  280   281   284     1 
  282   281   283     1 
  282   281   284     1 
  283   281   284     1 
  281   284   285     1 
  284   285   286     1 
  284   285   287     1 
  284   285   288     1 
  286   285   287     1 
  286   285   288     1 
  287   285   288     1 
  285   288   289     1 
  285   288   290     1 
  285   288   304     1 
  289   288   290     1 
  289   288   304     1 
  290   288   304     1 
  288   290   291     1 
  290   291   292     1 
  290   291   293     1 
  290   291   306     1 
  292   291   293     1 
  292   291   306     1 
  293   291   306     1 
  291   293   294     1 
  291   293   302     1 
  294   293   302     1 
  293   294   295     1 
  293   294   296     1 
  295   294   296     1 
  294   296   297     1 
  294   296   298     1 
  297   296   298     1 
  296   298   299     1 
  296   298   300     1 
  299   298   300     1 
  298   300   301     1 
  298   300   302     1 
  301   300   302     1 
  293   302   300     1 
  293   302   303     1 
  300   302   303     1 
  288   304   305     1 
  288   304   306     1 
  288   304   310     1 
  305   304   306     1 
  305   304   310     1 
  306   304   310     1 
  291   306   304     1 
  291   306   307     1 
  291   306   308     1 
  304   306   307     1 
  304   306   308     1 
  307   306   308     1 
  306   308   309     1 
  304   310   311     1 
  310   311   312     1 
  310   311   313     1 
  310   311   314     1 
  312   311   313     1 
  312   311   314     1 
  313   311   314     1 
  311   314   315     1 
  314   315   316     1 
  314   315   317     1 
  314   315   318     1 
  316   315   317     1 
  316   315   318     1 
  317   315   318     1 
  315   318   319     1 
  315   318   320     1 
  315   318   338     1 
  319   318   320     1 
  319   318   338     1 
  320   318   338     1 
  318   320   321     1 
  320   321   322     1 
  320   321   323     1 
  320   321   340     1 
  322   321   323     1 
  322   321   340     1 
  323   321   340     1 
  321   323   324     1 
  321   323   337     1 
  324   323   337     1 
  323   324   325     1 
  323   324   326     1 
  325   324   326     1 
  324   326   327     1 
  326   327   328     1 
  326   327   337     1 
  328   327   337     1 
  327   328   329     1 
  327   328   330     1 
  329   328   330     1 
  328   330   331     1 
  328   330   332     1 
  331   330   332     1 
  330   332   333     1 
  330   332   336     1 
  333   332   336     1 
  332   333   334     1 
  332   333   335     1 
  334   333   335     1 
  332   336   337     1 
  323   337   327     1 
  323   337   336     1 
  327   337   336     1 
  318   338   339     1 
  318   338   340     1 
  318   338   344     1 
  339   338   340     1 
  339   338   344     1 
  340   338   344     1 
  321   340   338     1 
  321   340   341     1 
  321   340   342     1 
  338   340   341     1 
  338   340   342     1 
  341   340   342     1 
  340   342   343     1 
  338   344   345     1 
  344   345   346     1 
  344   345   347     1 
  344   345   348     1 
  346   345   347     1 
  346   345   348     1 
  347   345   348     1 
  345   348   349     1 
  348   349   350     1 
  348   349   351     1 
  348   349   352     1 
  350   349   351     1 
  350   349   352     1 
  351   349   352     1 
  349   352   353     1 
  349   352   354     1 
  349   352   369     1 
  353   352   354     1 
  353   352   369     1 
  354   352   369     1 
  352   354   355     1 
  354   355   356     1 
  354   355   357     1 
  354   355   371     1 
  356   355   357     1 
  356   355   371     1 
  357   355   371     1 
  355   357   358     1 
  355   357   367     1 
  358   357   367     1 
  357   358   359     1 
  357   358   360     1 
  359   358   360     1 
  358   360   361     1 
  358   360   362     1 
  361   360   362     1 
  360   362   363     1 
  360   362   366     1 
  363   362   366     1 
  362   363   364     1 
  362   363   365     1 
  364   363   365     1 
  362   366   367     1 
  357   367   366     1 
  357   367   368     1 
  366   367   368     1 
  352   369   370     1 
  352   369   371     1 
  352   369   375     1 
  370   369   371     1 
  370   369   375     1 
  371   369   375     1 
  355   371   369     1 
  355   371   372     1 
  355   371   373     1 
  369   371   372     1 
  369   371   373     1 
  372   371   373     1 
  371   373   374     1 
  369   375   376     1 
  375   376   377     1 
  375   376   378     1 
  375   376   379     1 
  377   376   378     1 
  377   376   379     1 
  378   376   379     1 
  376   379   380     1 
  379   380   381     1 
  379   380   382     1 
  379   380   383     1 
  381   380   382     1 
  381   380   383     1 
  382   380   383     1 
  380   383   384     1 
  380   383   385     1 
  380   383   399     1 
  384   383   385     1 
  384   383   399     1 
  385   383   399     1 
  383   385   386     1 
  385   386   387     1 
  385   386   388     1 
  385   386   401     1 
  387   386   388     1 
  387   386   401     1 
  388   386   401     1 
  386   388   389     1 
  386   388   397     1 
  389   388   397     1 
  388   389   390     1 
  388   389   391     1 
  390   389   391     1 
  389   391   392     1 
  389   391   393     1 
  392   391   393     1 
  391   393   394     1 
  391   393   395     1 
  394   393   395     1 
  393   395   396     1 
  393   395   397     1 
  396   395   397     1 
  388   397   395     1 
  388   397   398     1 
  395   397   398     1 
  383   399   400     1 
  383   399   401     1 
  383   399   405     1 
  400   399   401     1 
  400   399   405     1 
  401   399   405     1 
  386   401   399     1 
  386   401   402     1 
  386   401   403     1 
  399   401   402     1 
  399   401   403     1 
  402   401   403     1 
  401   403   404     1 
  399   405   406     1 
  405   406   407     1 
  405   406   408     1 
  405   406   409     1 
  407   406   408     1 
  407   406   409     1 
  408   406   409     1 
  406   409   410     1 
  409   410   411     1 
  409   410   412     1 
  409   410   413     1 
  411   410   412     1 
  411   410   413     1 
  412   410   413     1 
  410   413   414     1 
  410   413   415     1 
  410   413   432     1 
  414   413   415     1 
  414   413   432     1 
  415   413   432     1 
  413   415   416     1 
  415   416   417     1 
  415   416   418     1 
  415   416   434     1 
  417   416   418     1 
  417   416   434     1 
  418   416   434     1 
  416   418   419     1 
  416   418   431     1 
  419   418   431     1 
  418   419   420     1 
  418   419   421     1 
  420   419   421     1 
  419   421   422     1 
  421   422   423     1 
  421   422   431     1 
  423   422   431     1 
  422   423   424     1 
  422   423   427     1 
  424   423   427     1 
  423   424   425     1 
  423   424   426     1 
  425   424   426     1 
  423   427   428     1 
  427   428   429     1 
  427   428   430     1 
  429   428   430     1 
  428   430   431     1 
  418   431   422     1 
  418   431   430     1 
  422   431   430     1 
  413   432   433     1 
  413   432   434     1 
  413   432   438     1 
  433   432   434     1 
  433   432   438     1 
  434   432   438     1 
  416   434   432     1 
  416   434   435     1 
  416   434   436     1 
  432   434   435     1 
  432   434   436     1 
  435   434   436     1 
  434   436   437     1 
  432   438   439     1 
  438   439   440     1 
  438   439   441     1 
  438   439   442     1 
  440   439   441     1 
  440   439   442     1 
  441   439   442     1 
  439   442   443     1 
  442   443   444     1 
  442   443   445     1 
  442   443   446     1 
  444   443   445     1 
  444   443   446     1 
  445   443   446     1 
  443   446   447     1 
  443   446   448     1 
  443   446   462     1 
  447   446   448     1 
  447   446   462     1 
  448   446   462     1 
  446   448   449     1 
  448   449   450     1 
  448   449   451     1 
  448   449   464     1 
  450   449   451     1 
  450   449   464     1 
  451   449   464     1 
  449   451   452     1 
  449   451   460     1 
  452   451   460     1 
  451   452   453     1 
  451   452   454     1 
  453   452   454     1 
  452   454   455     1 
  452   454   456     1 
  455   454   456     1 
  454   456   457     1 
  454   456   458     1 
  457   456   458     1 
  456   458   459     1 
  456   458   460     1 
  459   458   460     1 
  451   460   458     1 
  451   460   461     1 
  458   460   461     1 
  446   462   463     1 
  446   462   464     1 
  446   462   468     1 
  463   462   464     1 
  463   462   468     1 
  464   462   468     1 
  449   464   462     1 
  449   464   465     1 
  449   464   466     1 
  462   464   465     1 
  462   464   466     1 
  465   464   466     1 
  464   466   467     1 
  462   468   469     1 
  468   469   470     1 
  468   469   471     1 
  468   469   472     1 
  470   469   471     1 
  470   469   472     1 
  471   469   472     1 
  469   472   473     1 
  472   473   474     1 
  472   473   475     1 
  472   473   476     1 
  474   473   475     1 
  474   473   476     1 
  475   473   476     1 
  473   476   477     1 
  473   476   478     1 
  473   476   493     1 
  477   476   478     1 
  477   476   493     1 
  478   476   493     1 
  476   478   479     1 
  478   479   480     1 
  478   479   481     1 
  478   479   495     1 
  480   479   481     1 
  480   479   495     1 
  481   479   495     1 
  479   481   482     1 
  479   481   491     1 
  482   481   491     1 
  481   482   483     1 
  481   482   484     1 
  483   482   484     1 
  482   484   485     1 
  482   484   486     1 
  485   484   486     1 
  484   486   487     1 
  484   486   490     1 
  487   486   490     1 
  486   487   488     1 
  486   487   489     1 
  488   487   489     1 
  486   490   491     1 
  481   491   490     1 
  481   491   492     1 
  490   491   492     1 
  476   493   494     1 
  476   493   495     1 
  476   493   499     1 
  494   493   495     1 
  494   493   499     1 
  495   493   499     1 
  479   495   493     1 
  479   495   496     1 
  479   495   497     1 
  493   495   496     1 
  493   495   497     1 
  496   495   497     1 
  495   497   498     1 
  493   499   500     1 
  499   500   501     1 
  499   500   502     1 
  499   500   503     1 
  501   500   502     1 
  501   500   503     1 
  502   500   503     1 
  500   503   504     1 
  503   504   505     1 
  503   504   506     1 
  503   504   507     1 
  505   504   506     1 
  505   504   507     1 
  506   504   507     1 
  504   507   508     1 
  504   507   509     1 
  504   507   524     1 
  508   507   509     1 
  508   507   524     1 
  509   507   524     1 
  507   509   510     1 
  509   510   511     1 
  509   510   512     1 
  509   510   526     1 
  511   510   512     1 
  511   510   526     1 
  512   510   526     1 
  510   512   513     1 
  510   512   522     1 
  513   512   522     1 
  512   513   514     1 
  512   513   515     1 
  514   513   515     1 
  513   515   516     1 
  513   515   517     1 
  516   515   517     1 
  515   517   518     1 
  515   517   521     1 
  518   517   521     1 
  517   518   519     1 
  517   518   520     1 
  519   518   520     1 
  517   521   522     1 
  512   522   521     1 
  512   522   523     1 
  521   522   523     1 
  507   524   525     1 
  507   524   526     1 
  507   524   530     1 
  525   524   526     1 
  525   524   530     1 
  526   524   530     1 
  510   526   524     1 
  510   526   527     1 
  510   526   528     1 
  524   526   527     1 
  524   526   528     1 
  527   526   528     1 
  526   528   529     1 
  524   530   531     1 
  530   531   532     1 
  530   531   533     1 
  530   531   534     1 
  532   531   533     1 
  532   531   534     1 
  533   531   534     1 
  531   534   535     1 
  534   535   536     1 
  534   535   537     1 
  534   535   538     1 
  536   535   537     1 
  536   535   538     1 
  537   535   538     1 
  535   538   539     1 
  535   538   540     1 
  535   538   555     1 
  539   538   540     1 
  539   538   555     1 
  540   538   555     1 
  538   540   541     1 
  540   541   542     1 
  540   541   543     1 
  540   541   557     1 
  542   541   543     1 
  542   541   557     1 
  543   541   557     1 
  541   543   544     1 
  541   543   553     1 
  544   543   553     1 
  543   544   545     1 
  543   544   546     1 
  545   544   546     1 
  544   546   547     1 
  544   546   548     1 
  547   546   548     1 
  546   548   549     1 
  546   548   552     1 
  549   548   552     1 
  548   549   550     1 
  548   549   551     1 
  550   549   551     1 
  548   552   553     1 
  543   553   552     1 
  543   553   554     1 
  552   553   554     1 
  538   555   556     1 
  538   555   557     1 
  538   555   561     1 
  556   555   557     1 
  556   555   561     1 
  557   555   561     1 
  541   557   555     1 
  541   557   558     1 
  541   557   559     1 
  555   557   558     1 
  555   557   559     1 
  558   557   559     1 
  557   559   560     1 
  555   561   562     1 
  561   562   563     1 
  561   562   564     1 
  561   562   565     1 
  563   562   564     1 
  563   562   565     1 
  564   562   565     1 
  562   565   566     1 
  565   566   567     1 
  565   566   568     1 
  565   566   569     1 
  567   566   568     1 
  567   566   569     1 
  568   566   569     1 
  566   569   570     1 
  566   569   571     1 
  566   569   585     1 
  570   569   571     1 
  570   569   585     1 
  571   569   585     1 
  569   571   572     1 
  571   572   573     1 
  571   572   574     1 
  571   572   587     1 
  573   572   574     1 
  573   572   587     1 
  574   572   587     1 
  572   574   575     1 
  572   574   583     1 
  575   574   583     1 
  574   575   576     1 
  574   575   577     1 
  576   575   577     1 
  575   577   578     1 
  575   577   579     1 
  578   577   579     1 
  577   579   580     1 
  577   579   581     1 
  580   579   581     1 
  579   581   582     1 
  579   581   583     1 
  582   581   583     1 
  574   583   581     1 
  574   583   584     1 
  581   583   584     1 
  569   585   586     1 
  569   585   587     1 
  569   585   591     1 
  586   585   587     1 
  586   585   591     1 
  587   585   591     1 
  572   587   585     1 
  572   587   588     1 
  572   587   589     1 
  585   587   588     1 
  585   587   589     1 
  588   587   589     1 
  587   589   590     1 
  585   591   592     1 
  591   592   593     1 
  591   592   594     1 
  591   592   595     1 
  593   592   594     1 
  593   592   595     1 
  594   592   595     1 
  592   595   596     1 
  595   596   597     1 
  595   596   598     1 
  595   596   599     1 
  597   596   598     1 
  597   596   599     1 
  598   596   599     1 
  596   599   600     1 
  596   599   601     1 
  596   599   616     1 
  600   599   601     1 
  600   599   616     1 
  601   599   616     1 
  599   601   602     1 
  601   602   603     1 
  601   602   604     1 
  601   602   618     1 
  603   602   604     1 
  603   602   618     1 
  604   602   618     1 
  602   604   605     1 
  602   604   614     1 
  605   604   614     1 
  604   605   606     1 
  604   605   607     1 
  606   605   607     1 
  605   607   608     1 
  605   607   609     1 
  608   607   609     1 
  607   609   610     1 
  607   609   613     1 
  610   609   613     1 
  609   610   611     1 
  609   610   612     1 
  611   610   612     1 
  609   613   614     1 
  604   614   613     1 
  604   614   615     1 
  613   614   615     1 
  599   616   617     1 
  599   616   618     1 
  599   616   622     1 
  617   616   618     1 
  617   616   622     1 
  618   616   622     1 
  602   618   616     1 
  602   618   619     1 
  602   618   620     1 
  616   618   619     1 
  616   618   620     1 
  619   618   620     1 
  618   620   621     1 
  616   622   623     1 
  622   623   624     1 
  622   623   625     1 
  622   623   626     1 
  624   623   625     1 
  624   623   626     1 
  625   623   626     1 
  623   626   627     1 
  626   627   628     1 
  626   627   629     1 
  626   627   630     1 
  628   627   629     1 
  628   627   630     1 
  629   627   630     1 
  627   630   631     1 
  627   630   632     1 
  627   630   647     1 
  631   630   632     1 
  631   630   647     1 
  632   630   647     1 
  630   632   633     1 
  632   633   634     1 
  632   633   635     1 
  632   633   649     1 
  634   633   635     1 
  634   633   649     1 
  635   633   649     1 
  633   635   636     1 
  633   635   645     1 
  636   635   645     1 
  635   636   637     1 
  635   636   638     1 
  637   636   638     1 
  636   638   639     1 
  636   638   640     1 
  639   638   640     1 
  638   640   641     1 
  638   640   644     1 
  641   640   644     1 
  640   641   642     1 
  640   641   643     1 
  642   641   643     1 
  640   644   645     1 
  635   645   644     1 
  635   645   646     1 
  644   645   646     1 
  630   647   648     1 
  630   647   649     1 
  630   647   653     1 
  648   647   649     1 
  648   647   653     1 
  649   647   653     1 
  633   649   647     1 
  633   649   650     1 
  633   649   651     1 
  647   649   650     1 
  647   649   651     1 
  650   649   651     1 
  649   651   652     1 
  647   653   654     1 

[ dihedrals ]
;  ai    aj    ak    al funct            c0            c1            c2            c3            c4            c5
    2     1     3     4     9 
    2     1     3     5     9 
    2     1     3     6     9 
    1     3     6     7     9 
    1     3     6     8     9 
    1     3     6    25     9 
    4     3     6     7     9 
    4     3     6     8     9 
    4     3     6    25     9 
    5     3     6     7     9 
    5     3     6     8     9 
    5     3     6    25     9 
    3     6     8     9     9 
    7     6     8     9     9 
   25     6     8     9     9 
    3     6    25    26     9 
    3     6    25    27     9 
    3     6    25    31     9 
    7     6    25    26     9 
    7     6    25    27     9 
    7     6    25    31     9 
    8     6    25    26     9 
    8     6    25    27     9 
    8     6    25    31     9 
    6     8     9    10     9 
    6     8     9    11     9 
    6     8     9    27     9 
    8     9    11    12     9 
    8     9    11    24     9 
   10     9    11    12     9 
   10     9    11    24     9 
   27     9    11    12     9 
   27     9    11    24     9 
    8     9    27    25     9 
    8     9    27    28     9 
    8     9    27    29     9 
   10     9    27    25     9 
   10     9    27    28     9 
   10     9    27    29     9 
   11     9    27    25     9 
   11     9    27    28     9 
   11     9    27    29     9 
    9    11    12    13     9 
    9    11    12    14     9 
   24    11    12    13     9 
   24    11    12    14     9 
    9    11    24    15     9 
    9    11    24    23     9 
   12    11    24    15     9 
   12    11    24    23     9 
   11    12    14    15     9 
   13    12    14    15     9 
   12    14    15    16     9 
   12    14    15    24     9 
   14    15    16    17     9 
   14    15    16    20     9 
   24    15    16    17     9 
   24    15    16    20     9 
   14    15    24    11     9 
   14    15    24    23     9 
   16    15    24    11     9 
   16    15    24    23     9 
   15    16    17    18     9 
   15    16    17    19     9 
   20    16    17    18     9 
   20    16    17    19     9 
   15    16    20    21     9 
   17    16    20    21     9 
   16    20    21    22     9 
   16    20    21    23     9 
   20    21    23    24     9 
   22    21    23    24     9 
   21    23    24    11     9 
   21    23    24    15     9 
    6    25    27     9     9 
    6    25    27    28     9 
    6    25    27    29     9 
   26    25    27     9     9 
   26    25    27    28     9 
   26    25    27    29     9 
   31    25    27     9     9 
   31    25    27    28     9 
   31    25    27    29     9 
    6    25    31    32     9 
   26    25    31    32     9 
   27    25    31    32     9 
    9    27    29    30     9 
   25    27    29    30     9 
   28    27    29    30     9 
   25    31    32    33     9 
   25    31    32    34     9 
   25    31    32    35     9 
   31    32    35    36     9 
   33    32    35    36     9 
   34    32    35    36     9 
   32    35    36    37     9 
   32    35    36    38     9 
   32    35    36    39     9 
   35    36    39    40     9 
   35    36    39    41     9 
   35    36    39    55     9 
   37    36    39    40     9 
   37    36    39    41     9 
   37    36    39    55     9 
   38    36    39    40     9 
   38    36    39    41     9 
   38    36    39    55     9 
   36    39    41    42     9 
   40    39    41    42     9 
   55    39    41    42     9 
   36    39    55    56     9 
   36    39    55    57     9 
   36    39    55    61     9 
   40    39    55    56     9 
   40    39    55    57     9 
   40    39    55    61     9 
   41    39    55    56     9 
   41    39    55    57     9 
   41    39    55    61     9 
   39    41    42    43     9 
   39    41    42    44     9 
   39    41    42    57     9 
   41    42    44    45     9 
   41    42    44    53     9 
   43    42    44    45     9 
   43    42    44    53     9 
   57    42    44    45     9 
   57    42    44    53     9 
   41    42    57    55     9 
   41    42    57    58     9 
   41    42    57    59     9 
   43    42    57    55     9 
   43    42    57    58     9 
   43    42    57    59     9 
   44    42    57    55     9 
   44    42    57    58     9 
   44    42    57    59     9 
   42    44    45    46     9 
   42    44    45    47     9 
   53    44    45    46     9 
   53    44    45    47     9 
   42    44    53    51     9 
   42    44    53    54     9 
   45    44    53    51     9 
   45    44    53    54     9 
   44    45    47    48     9 
   44    45    47    49     9 
   46    45    47    48     9 
   46    45    47    49     9 
   45    47    49    50     9 
   45    47    49    51     9 
   48    47    49    50     9 
   48    47    49    51     9 
   47    49    51    52     9 
   47    49    51    53     9 
   50    49    51    52     9 
   50    49    51    53     9 
   49    51    53    44     9 
   49    51    53    54     9 
   52    51    53    44     9 
   52    51    53    54     9 
   39    55    57    42     9 
   39    55    57    58     9 
   39    55    57    59     9 
   56    55    57    42     9 
   56    55    57    58     9 
   56    55    57    59     9 
   61    55    57    42     9 
   61    55    57    58     9 
   61    55    57    59     9 
   39    55    61    62     9 
   56    55    61    62     9 
   57    55    61    62     9 
   42    57    59    60     9 
   55    57    59    60     9 
   58    57    59    60     9 
   55    61    62    63     9 
   55    61    62    64     9 
   55    61    62    65     9 
   61    62    65    66     9 
   63    62    65    66     9 
   64    62    65    66     9 
   62    65    66    67     9 
   62    65    66    68     9 
   62    65    66    69     9 
   65    66    69    70     9 
   65    66    69    71     9 
   65    66    69    86     9 
   67    66    69    70     9 
   67    66    69    71     9 
   67    66    69    86     9 
   68    66    69    70     9 
   68    66    69    71     9 
   68    66    69    86     9 
   66    69    71    72     9 
   70    69    71    72     9 
   86    69    71    72     9 
   66    69    86    87     9 
   66    69    86    88     9 
   66    69    86    92     9 
   70    69    86    87     9 
   70    69    86    88     9 
   70    69    86    92     9 
   71    69    86    87     9 
   71    69    86    88     9 
   71    69    86    92     9 
   69    71    72    73     9 
   69    71    72    74     9 
   69    71    72    88     9 
   71    72    74    75     9 
   71    72    74    84     9 
   73    72    74    75     9 
   73    72    74    84     9 
   88    72    74    75     9 
   88    72    74    84     9 
   71    72    88    86     9 
   71    72    88    89     9 
   71    72    88    90     9 
   73    72    88    86     9 
   73    72    88    89     9 
   73    72    88    90     9 
   74    72    88    86     9 
   74    72    88    89     9 
   74    72    88    90     9 
   72    74    75    76     9 
   72    74    75    77     9 
   84    74    75    76     9 
   84    74    75    77     9 
   72    74    84    83     9 
   72    74    84    85     9 
   75    74    84    83     9 
   75    74    84    85     9 
   74    75    77    78     9 
   74    75    77    79     9 
   76    75    77    78     9 
   76    75    77    79     9 
   75    77    79    80     9 
   75    77    79    83     9 
   78    77    79    80     9 
   78    77    79    83     9 
   77    79    80    81     9 
   77    79    80    82     9 
   83    79    80    81     9 
   83    79    80    82     9 
   77    79    83    84     9 
   80    79    83    84     9 
   79    83    84    74     9 
   79    83    84    85     9 
   69    86    88    72     9 
   69    86    88    89     9 
   69    86    88    90     9 
   87    86    88    72     9 
   87    86    88    89     9 
   87    86    88    90     9 
   92    86    88    72     9 
   92    86    88    89     9 
   92    86    88    90     9 
   69    86    92    93     9 
   87    86    92    93     9 
   88    86    92    93     9 
   72    88    90    91     9 
   86    88    90    91     9 
   89    88    90    91     9 
   86    92    93    94     9 
   86    92    93    95     9 
   86    92    93    96     9 
   92    93    96    97     9 
   94    93    96    97     9 
   95    93    96    97     9 
   93    96    97    98     9 
   93    96    97    99     9 
   93    96    97   100     9 
   96    97   100   101     9 
   96    97   100   102     9 
   96    97   100   116     9 
   98    97   100   101     9 
   98    97   100   102     9 
   98    97   100   116     9 
   99    97   100   101     9 
   99    97   100   102     9 
   99    97   100   116     9 
   97   100   102   103     9 
  101   100   102   103     9 
  116   100   102   103     9 
   97   100   116   117     9 
   97   100   116   118     9 
   97   100   116   122     9 
  101   100   116   117     9 
  101   100   116   118     9 
  101   100   116   122     9 
  102   100   116   117     9 
  102   100   116   118     9 
  102   100   116   122     9 
  100   102   103   104     9 
  100   102   103   105     9 
  100   102   103   118     9 
  102   103   105   106     9 
  102   103   105   114     9 
  104   103   105   106     9 
  104   103   105   114     9 
  118   103   105   106     9 
  118   103   105   114     9 
  102   103   118   116     9 
  102   103   118   119     9 
  102   103   118   120     9 
  104   103   118   116     9 
  104   103   118   119     9 
  104   103   118   120     9 
  105   103   118   116     9 
  105   103   118   119     9 
  105   103   118   120     9 
  103   105   106   107     9 
  103   105   106   108     9 
  114   105   106   107     9 
  114   105   106   108     9 
  103   105   114   112     9 
  103   105   114   115     9 
  106   105   114   112     9 
  106   105   114   115     9 
  105   106   108   109     9 
  105   106   108   110     9 
  107   106   108   109     9 
  107   106   108   110     9 
  106   108   110   111     9 
  106   108   110   112     9 
  109   108   110   111     9 
  109   108   110   112     9 
  108   110   112   113     9 
  108   110   112   114     9 
  111   110   112   113     9 
  111   110   112   114     9 
  110   112   114   105     9 
  110   112   114   115     9 
  113   112   114   105     9 
  113   112   114   115     9 
  100   116   118   103     9 
  100   116   118   119     9 
  100   116   118   120     9 
  117   116   118   103     9 
  117   116   118   119     9 
  117   116   118   120     9 
  122   116   118   103     9 
  122   116   118   119     9 
  122   116   118   120     9 
  100   116   122   123     9 
  117   116   122   123     9 
  118   116   122   123     9 
  103   118   120   121     9 
  116   118   120   121     9 
  119   118   120   121     9 
  116   122   123   124     9 
  116   122   123   125     9 
  116   122   123   126     9 
  122   123   126   127     9 
  124   123   126   127     9 
  125   123   126   127     9 
  123   126   127   128     9 
  123   126   127   129     9 
  123   126   127   130     9 
  126   127   130   131     9 
  126   127   130   132     9 
  126   127   130   147     9 
  128   127   130   131     9 
  128   127   130   132     9 
  128   127   130   147     9 
  129   127   130   131     9 
  129   127   130   132     9 
  129   127   130   147     9 
  127   130   132   133     9 
  131   130   132   133     9 
  147   130   132   133     9 
  127   130   147   148     9 
  127   130   147   149     9 
  127   130   147   153     9 
  131   130   147   148     9 
  131   130   147   149     9 
  131   130   147   153     9 
  132   130   147   148     9 
  132   130   147   149     9 
  132   130   147   153     9 
  130   132   133   134     9 
  130   132   133   135     9 
  130   132   133   149     9 
  132   133   135   136     9 
  132   133   135   145     9 
  134   133   135   136     9 
  134   133   135   145     9 
  149   133   135   136     9 
  149   133   135   145     9 
  132   133   149   147     9 
  132   133   149   150     9 
  132   133   149   151     9 
  134   133   149   147     9 
  134   133   149   150     9 
  134   133   149   151     9 
  135   133   149   147     9 
  135   133   149   150     9 
  135   133   149   151     9 
  133   135   136   137     9 
  133   135   136   138     9 
  145   135   136   137     9 
  145   135   136   138     9 
  133   135   145   144     9 
  133   135   145   146     9 
  136   135   145   144     9 
  136   135   145   146     9 
  135   136   138   139     9 
  135   136   138   140     9 
  137   136   138   139     9 
  137   136   138   140     9 
  136   138   140   141     9 
  136   138   140   144     9 
  139   138   140   141     9 
  139   138   140   144     9 
  138   140   141   142     9 
  138   140   141   143     9 
  144   140   141   142     9 
  144   140   141   143     9 
  138   140   144   145     9 
  141   140   144   145     9 
  140   144   145   135     9 
  140   144   145   146     9 
  130   147   149   133     9 
  130   147   149   150     9 
  130   147   149   151     9 
  148   147   149   133     9 
  148   147   149   150     9 
  148   147   149   151     9 
  153   147   149   133     9 
  153   147   149   150     9 
  153   147   149   151     9 
  130   147   153   154     9 
  148   147   153   154     9 
  149   147   153   154     9 
  133   149   151   152     9 
  147   149   151   152     9 
  150   149   151   152     9 
  147   153   154   155     9 
  147   153   154   156     9 
  147   153   154   157     9 
  153   154   157   158     9 
  155   154   157   158     9 
  156   154   157   158     9 
  154   157   158   159     9 
  154   157   158   160     9 
  154   157   158   161     9 
  157   158   161   162     9 
  157   158   161   163     9 
  157   158   161   178     9 
  159   158   161   162     9 
  159   158   161   163     9 
  159   158   161   178     9 
  160   158   161   162     9 
  160   158   161   163     9 
  160   158   161   178     9 
  158   161   163   164     9 
  162   161   163   164     9 
  178   161   163   164     9 
  158   161   178   179     9 
  158   161   178   180     9 
  158   161   178   184     9 
  162   161   178   179     9 
  162   161   178   180     9 
  162   161   178   184     9 
  163   161   178   179     9 
  163   161   178   180     9 
  163   161   178   184     9 
  161   163   164   165     9 
  161   163   164   166     9 
  161   163   164   180     9 
  163   164   166   167     9 
  163   164   166   176     9 
  165   164   166   167     9 
  165   164   166   176     9 
  180   164   166   167     9 
  180   164   166   176     9 
  163   164   180   178     9 
  163   164   180   181     9 
  163   164   180   182     9 
  165   164   180   178     9 
  165   164   180   181     9 
  165   164   180   182     9 
  166   164   180   178     9 
  166   164   180   181     9 
  166   164   180   182     9 
  164   166   167   168     9 
  164   166   167   169     9 
  176   166   167   168     9 
  176   166   167   169     9 
  164   166   176   175     9 
  164   166   176   177     9 
  167   166   176   175     9 
  167   166   176   177     9 
  166   167   169   170     9 
  166   167   169   171     9 
  168   167   169   170     9 
  168   167   169   171     9 
  167   169   171   172     9 
  167   169   171   175     9 
  170   169   171   172     9 
  170   169   171   175     9 
  169   171   172   173     9 
  169   171   172   174     9 
  175   171   172   173     9 
  175   171   172   174     9 
  169   171   175   176     9 
  172   171   175   176     9 
  171   175   176   166     9 
  171   175   176   177     9 
  161   178   180   164     9 
  161   178   180   181     9 
  161   178   180   182     9 
  179   178   180   164     9 
  179   178   180   181     9 
  179   178   180   182     9 
  184   178   180   164     9 
  184   178   180   181     9 
  184   178   180   182     9 
  161   178   184   185     9 
  179   178   184   185     9 
  180   178   184   185     9 
  164   180   182   183     9 
  178   180   182   183     9 
  181   180   182   183     9 
  178   184   185   186     9 
  178   184   185   187     9 
  178   184   185   188     9 
  184   185   188   189     9 
  186   185   188   189     9 
  187   185   188   189     9 
  185   188   189   190     9 
  185   188   189   191     9 
  185   188   189   192     9 
  188   189   192   193     9 
  188   189   192   194     9 
  188   189   192   208     9 
  190   189   192   193     9 
  190   189   192   194     9 
  190   189   192   208     9 
  191   189   192   193     9 
  191   189   192   194     9 
  191   189   192   208     9 
  189   192   194   195     9 
  193   192   194   195     9 
  208   192   194   195     9 
  189   192   208   209     9 
  189   192   208   210     9 
  189   192   208   214     9 
  193   192   208   209     9 
  193   192   208   210     9 
  193   192   208   214     9 
  194   192   208   209     9 
  194   192   208   210     9 
  194   192   208   214     9 
  192   194   195   196     9 
  192   194   195   197     9 
  192   194   195   210     9 
  194   195   197   198     9 
  194   195   197   206     9 
  196   195   197   198     9 
  196   195   197   206     9 
  210   195   197   198     9 
  210   195   197   206     9 
  194   195   210   208     9 
  194   195   210   211     9 
  194   195   210   212     9 
  196   195   210   208     9 
  196   195   210   211     9 
  196   195   210   212     9 
  197   195   210   208     9 
  197   195   210   211     9 
  197   195   210   212     9 
  195   197   198   199     9 
  195   197   198   200     9 
  206   197   198   199     9 
  206   197   198   200     9 
  195   197   206   204     9 
  195   197   206   207     9 
  198   197   206   204     9 
  198   197   206   207     9 
  197   198   200   201     9 
  197   198   200   202     9 
  199   198   200   201     9 
  199   198   200   202     9 
  198   200   202   203     9 
  198   200   202   204     9 
  201   200   202   203     9 
  201   200   202   204     9 
  200   202   204   205     9 
  200   202   204   206     9 
  203   202   204   205     9 
  203   202   204   206     9 
  202   204   206   197     9 
  202   204   206   207     9 
  205   204   206   197     9 
  205   204   206   207     9 
  192   208   210   195     9 
  192   208   210   211     9 
  192   208   210   212     9 
  209   208   210   195     9 
  209   208   210   211     9 
  209   208   210   212     9 
  214   208   210   195     9 
  214   208   210   211     9 
  214   208   210   212     9 
  192   208   214   215     9 
  209   208   214   215     9 
  210   208   214   215     9 
  195   210   212   213     9 
  208   210   212   213     9 
  211   210   212   213     9 
  208   214   215   216     9 
  208   214   215   217     9 
  208   214   215   218     9 
  214   215   218   219     9 
  216   215   218   219     9 
  217   215   218   219     9 
  215   218   219   220     9 
  215   218   219   221     9 
  215   218   219   222     9 
  218   219   222   223     9 
  218   219   222   224     9 
  218   219   222   241     9 
  220   219   222   223     9 
  220   219   222   224     9 
  220   219   222   241     9 
  221   219   222   223     9 
  221   219   222   224     9 
  221   219   222   241     9 
  219   222   224   225     9 
  223   222   224   225     9 
  241   222   224   225     9 
  219   222   241   242     9 
  219   222   241   243     9 
  219   222   241   247     9 
  223   222   241   242     9 
  223   222   241   243     9 
  223   222   241   247     9 
  224   222   241   242     9 
  224   222   241   243     9 
  224   222   241   247     9 
  222   224   225   226     9 
  222   224   225   227     9 
  222   224   225   243     9 
  224   225   227   228     9 
  224   225   227   240     9 
  226   225   227   228     9 
  226   225   227   240     9 
  243   225   227   228     9 
  243   225   227   240     9 
  224   225   243   241     9 
  224   225   243   244     9 
  224   225   243   245     9 
  226   225   243   241     9 
  226   225   243   244     9 
  226   225   243   245     9 
  227   225   243   241     9 
  227   225   243   244     9 
  227   225   243   245     9 
  225   227   228   229     9 
  225   227   228   230     9 
  240   227   228   229     9 
  240   227   228   230     9 
  225   227   240   231     9 
  225   227   240   239     9 
  228   227   240   231     9 
  228   227   240   239     9 
  227   228   230   231     9 
  229   228   230   231     9 
  228   230   231   232     9 
  228   230   231   240     9 
  230   231   232   233     9 
  230   231   232   236     9 
  240   231   232   233     9 
  240   231   232   236     9 
  230   231   240   227     9 
  230   231   240   239     9 
  232   231   240   227     9 
  232   231   240   239     9 
  231   232   233   234     9 
  231   232   233   235     9 
  236   232   233   234     9 
  236   232   233   235     9 
  231   232   236   237     9 
  233   232   236   237     9 
  232   236   237   238     9 
  232   236   237   239     9 
  236   237   239   240     9 
  238   237   239   240     9 
  237   239   240   227     9 
  237   239   240   231     9 
  222   241   243   225     9 
  222   241   243   244     9 
  222   241   243   245     9 
  242   241   243   225     9 
  242   241   243   244     9 
  242   241   243   245     9 
  247   241   243   225     9 
  247   241   243   244     9 
  247   241   243   245     9 
  222   241   247   248     9 
  242   241   247   248     9 
  243   241   247   248     9 
  225   243   245   246     9 
  241   243   245   246     9 
  244   243   245   246     9 
  241   247   248   249     9 
  241   247   248   250     9 
  241   247   248   251     9 
  247   248   251   252     9 
  249   248   251   252     9 
  250   248   251   252     9 
  248   251   252   253     9 
  248   251   252   254     9 
  248   251   252   255     9 
  251   252   255   256     9 
  251   252   255   257     9 
  251   252   255   274     9 
  253   252   255   256     9 
  253   252   255   257     9 
  253   252   255   274     9 
  254   252   255   256     9 
  254   252   255   257     9 
  254   252   255   274     9 
  252   255   257   258     9 
  256   255   257   258     9 
  274   255   257   258     9 
  252   255   274   275     9 
  252   255   274   276     9 
  252   255   274   280     9 
  256   255   274   275     9 
  256   255   274   276     9 
  256   255   274   280     9 
  257   255   274   275     9 
  257   255   274   276     9 
  257   255   274   280     9 
  255   257   258   259     9 
  255   257   258   260     9 
  255   257   258   276     9 
  257   258   260   261     9 
  257   258   260   273     9 
  259   258   260   261     9 
  259   258   260   273     9 
  276   258   260   261     9 
  276   258   260   273     9 
  257   258   276   274     9 
  257   258   276   277     9 
  257   258   276   278     9 
  259   258   276   274     9 
  259   258   276   277     9 
  259   258   276   278     9 
  260   258   276   274     9 
  260   258   276   277     9 
  260   258   276   278     9 
  258   260   261   262     9 
  258   260   261   263     9 
  273   260   261   262     9 
  273   260   261   263     9 
  258   260   273   264     9 
  258   260   273   272     9 
  261   260   273   264     9 
  261   260   273   272     9 
  260   261   263   264     9 
  262   261   263   264     9 
  261   263   264   265     9 
  261   263   264   273     9 
  263   264   265   266     9 
  263   264   265   269     9 
  273   264   265   266     9 
  273   264   265   269     9 
  263   264   273   260     9 
  263   264   273   272     9 
  265   264   273   260     9 
  265   264   273   272     9 
  264   265   266   267     9 
  264   265   266   268     9 
  269   265   266   267     9 
  269   265   266   268     9 
  264   265   269   270     9 
  266   265   269   270     9 
  265   269   270   271     9 
  265   269   270   272     9 
  269   270   272   273     9 
  271   270   272   273     9 
  270   272   273   260     9 
  270   272   273   264     9 
  255   274   276   258     9 
  255   274   276   277     9 
  255   274   276   278     9 
  275   274   276   258     9 
  275   274   276   277     9 
  275   274   276   278     9 
  280   274   276   258     9 
  280   274   276   277     9 
  280   274   276   278     9 
  255   274   280   281     9 
  275   274   280   281     9 
  276   274   280   281     9 
  258   276   278   279     9 
  274   276   278   279     9 
  277   276   278   279     9 
  274   280   281   282     9 
  274   280   281   283     9 
  274   280   281   284     9 
  280   281   284   285     9 
  282   281   284   285     9 
  283   281   284   285     9 
  281   284   285   286     9 
  281   284   285   287     9 
  281   284   285   288     9 
  284   285   288   289     9 
  284   285   288   290     9 
  284   285   288   304     9 
  286   285   288   289     9 
  286   285   288   290     9 
  286   285   288   304     9 
  287   285   288   289     9 
  287   285   288   290     9 
  287   285   288   304     9 
  285   288   290   291     9 
  289   288   290   291     9 
  304   288   290   291     9 
  285   288   304   305     9 
  285   288   304   306     9 
  285   288   304   310     9 
  289   288   304   305     9 
  289   288   304   306     9 
  289   288   304   310     9 
  290   288   304   305     9 
  290   288   304   306     9 
  290   288   304   310     9 
  288   290   291   292     9 
  288   290   291   293     9 
  288   290   291   306     9 
  290   291   293   294     9 
  290   291   293   302     9 
  292   291   293   294     9 
  292   291   293   302     9 
  306   291   293   294     9 
  306   291   293   302     9 
  290   291   306   304     9 
  290   291   306   307     9 
  290   291   306   308     9 
  292   291   306   304     9 
  292   291   306   307     9 
  292   291   306   308     9 
  293   291   306   304     9 
  293   291   306   307     9 
  293   291   306   308     9 
  291   293   294   295     9 
  291   293   294   296     9 
  302   293   294   295     9 
  302   293   294   296     9 
  291   293   302   300     9 
  291   293   302   303     9 
  294   293   302   300     9 
  294   293   302   303     9 
  293   294   296   297     9 
  293   294   296   298     9 
  295   294   296   297     9 
  295   294   296   298     9 
  294   296   298   299     9 
  294   296   298   300     9 
  297   296   298   299     9 
  297   296   298   300     9 
  296   298   300   301     9 
  296   298   300   302     9 
  299   298   300   301     9 
  299   298   300   302     9 
  298   300   302   293     9 
  298   300   302   303     9 
  301   300   302   293     9 
  301   300   302   303     9 
  288   304   306   291     9 
  288   304   306   307     9 
  288   304   306   308     9 
  305   304   306   291     9 
  305   304   306   307     9 
  305   304   306   308     9 
  310   304   306   291     9 
  310   304   306   307     9 
  310   304   306   308     9 
  288   304   310   311     9 
  305   304   310   311     9 
  306   304   310   311     9 
  291   306   308   309     9 
  304   306   308   309     9 
  307   306   308   309     9 
  304   310   311   312     9 
  304   310   311   313     9 
  304   310   311   314     9 
  310   311   314   315     9 
  312   311   314   315     9 
  313   311   314   315     9 
  311   314   315   316     9 
  311   314   315   317     9 
  311   314   315   318     9 
  314   315   318   319     9 
  314   315   318   320     9 
  314   315   318   338     9 
  316   315   318   319     9 
  316   315   318   320     9 
  316   315   318   338     9 
  317   315   318   319     9 
  317   315   318   320     9 
  317   315   318   338     9 
  315   318   320   321     9 
  319   318   320   321     9 
  338   318   320   321     9 
  315   318   338   339     9 
  315   318   338   340     9 
  315   318   338   344     9 
  319   318   338   339     9 
  319   318   338   340     9 
  319   318   338   344     9 
  320   318   338   339     9 
  320   318   338   340     9 
  320   318   338   344     9 
  318   320   321   322     9 
  318   320   321   323     9 
  318   320   321   340     9 
  320   321   323   324     9 
  320   321   323   337     9 
  322   321   323   324     9 
  322   321   323   337     9 
  340   321   323   324     9 
  340   321   323   337     9 
  320   321   340   338     9 
  320   321   340   341     9 
  320   321   340   342     9 
  322   321   340   338     9 
  322   321   340   341     9 
  322   321   340   342     9 
  323   321   340   338     9 
  323   321   340   341     9 
  323   321   340   342     9 
  321   323   324   325     9 
  321   323   324   326     9 
  337   323   324   325     9 
  337   323   324   326     9 
  321   323   337   327     9 
  321   323   337   336     9 
  324   323   337   327     9 
  324   323   337   336     9 
  323   324   326   327     9 
  325   324   326   327     9 
  324   326   327   328     9 
  324   326   327   337     9 
  326   327   328   329     9 
  326   327   328   330     9 
  337   327   328   329     9 
  337   327   328   330     9 
  326   327   337   323     9 
  326   327   337   336     9 
  328   327   337   323     9 
  328   327   337   336     9 
  327   328   330   331     9 
  327   328   330   332     9 
  329   328   330   331     9 
  329   328   330   332     9 
  328   330   332   333     9 
  328   330   332   336     9 
  331   330   332   333     9 
  331   330   332   336     9 
  330   332   333   334     9 
  330   332   333   335     9 
  336   332   333   334     9 
  336   332   333   335     9 
  330   332   336   337     9 
  333   332   336   337     9 
  332   336   337   323     9 
  332   336   337   327     9 
  318   338   340   321     9 
  318   338   340   341     9 
  318   338   340   342     9 
  339   338   340   321     9 
  339   338   340   341     9 
  339   338   340   342     9 
  344   338   340   321     9 
  344   338   340   341     9 
  344   338   340   342     9 
  318   338   344   345     9 
  339   338   344   345     9 
  340   338   344   345     9 
  321   340   342   343     9 
  338   340   342   343     9 
  341   340   342   343     9 
  338   344   345   346     9 
  338   344   345   347     9 
  338   344   345   348     9 
  344   345   348   349     9 
  346   345   348   349     9 
  347   345   348   349     9 
  345   348   349   350     9 
  345   348   349   351     9 
  345   348   349   352     9 
  348   349   352   353     9 
  348   349   352   354     9 
  348   349   352   369     9 
  350   349   352   353     9 
  350   349   352   354     9 
  350   349   352   369     9 
  351   349   352   353     9 
  351   349   352   354     9 
  351   349   352   369     9 
  349   352   354   355     9 
  353   352   354   355     9 
  369   352   354   355     9 
  349   352   369   370     9 
  349   352   369   371     9 
  349   352   369   375     9 
  353   352   369   370     9 
  353   352   369   371     9 
  353   352   369   375     9 
  354   352   369   370     9 
  354   352   369   371     9 
  354   352   369   375     9 
  352   354   355   356     9 
  352   354   355   357     9 
  352   354   355   371     9 
  354   355   357   358     9 
  354   355   357   367     9 
  356   355   357   358     9 
  356   355   357   367     9 
  371   355   357   358     9 
  371   355   357   367     9 
  354   355   371   369     9 
  354   355   371   372     9 
  354   355   371   373     9 
  356   355   371   369     9 
  356   355   371   372     9 
  356   355   371   373     9 
  357   355   371   369     9 
  357   355   371   372     9 
  357   355   371   373     9 
  355   357   358   359     9 
  355   357   358   360     9 
  367   357   358   359     9 
  367   357   358   360     9 
  355   357   367   366     9 
  355   357   367   368     9 
  358   357   367   366     9 
  358   357   367   368     9 
  357   358   360   361     9 
  357   358   360   362     9 
  359   358   360   361     9 
  359   358   360   362     9 
  358   360   362   363     9 
  358   360   362   366     9 
  361   360   362   363     9 
  361   360   362   366     9 
  360   362   363   364     9 
  360   362   363   365     9 
  366   362   363   364     9 
  366   362   363   365     9 
  360   362   366   367     9 
  363   362   366   367     9 
  362   366   367   357     9 
  362   366   367   368     9 
  352   369   371   355     9 
  352   369   371   372     9 
  352   369   371   373     9 
  370   369   371   355     9 
  370   369   371   372     9 
  370   369   371   373     9 
  375   369   371   355     9 
  375   369   371   372     9 
  375   369   371   373     9 
  352   369   375   376     9 
  370   369   375   376     9 
  371   369   375   376     9 
  355   371   373   374     9 
  369   371   373   374     9 
  372   371   373   374     9 
  369   375   376   377     9 
  369   375   376   378     9 
  369   375   376   379     9 
  375   376   379   380     9 
  377   376   379   380     9 
  378   376   379   380     9 
  376   379   380   381     9 
  376   379   380   382     9 
  376   379   380   383     9 
  379   380   383   384     9 
  379   380   383   385     9 
  379   380   383   399     9 
  381   380   383   384     9 
  381   380   383   385     9 
  381   380   383   399     9 
  382   380   383   384     9 
  382   380   383   385     9 
  382   380   383   399     9 
  380   383   385   386     9 
  384   383   385   386     9 
  399   383   385   386     9 
  380   383   399   400     9 
  380   383   399   401     9 
  380   383   399   405     9 
  384   383   399   400     9 
  384   383   399   401     9 
  384   383   399   405     9 
  385   383   399   400     9 
  385   383   399   401     9 
  385   383   399   405     9 
  383   385   386   387     9 
  383   385   386   388     9 
  383   385   386   401     9 
  385   386   388   389     9 
  385   386   388   397     9 
  387   386   388   389     9 
  387   386   388   397     9 
  401   386   388   389     9 
  401   386   388   397     9 
  385   386   401   399     9 
  385   386   401   402     9 
  385   386   401   403     9 
  387   386   401   399     9 
  387   386   401   402     9 
  387   386   401   403     9 
  388   386   401   399     9 
  388   386   401   402     9 
  388   386   401   403     9 
  386   388   389   390     9 
  386   388   389   391     9 
  397   388   389   390     9 
  397   388   389   391     9 
  386   388   397   395     9 
  386   388   397   398     9 
  389   388   397   395     9 
  389   388   397   398     9 
  388   389   391   392     9 
  388   389   391   393     9 
  390   389   391   392     9 
  390   389   391   393     9 
  389   391   393   394     9 
  389   391   393   395     9 
  392   391   393   394     9 
  392   391   393   395     9 
  391   393   395   396     9 
  391   393   395   397     9 
  394   393   395   396     9 
  394   393   395   397     9 
  393   395   397   388     9 
  393   395   397   398     9 
  396   395   397   388     9 
  396   395   397   398     9 
  383   399   401   386     9 
  383   399   401   402     9 
  383   399   401   403     9 
  400   399   401   386     9 
  400   399   401   402     9 
  400   399   401   403     9 
  405   399   401   386     9 
  405   399   401   402     9 
  405   399   401   403     9 
  383   399   405   406     9 
  400   399   405   406     9 
  401   399   405   406     9 
  386   401   403   404     9 
  399   401   403   404     9 
  402   401   403   404     9 
  399   405   406   407     9 
  399   405   406   408     9 
  399   405   406   409     9 
  405   406   409   410     9 
  407   406   409   410     9 
  408   406   409   410     9 
  406   409   410   411     9 
  406   409   410   412     9 
  406   409   410   413     9 
  409   410   413   414     9 
  409   410   413   415     9 
  409   410   413   432     9 
  411   410   413   414     9 
  411   410   413   415     9 
  411   410   413   432     9 
  412   410   413   414     9 
  412   410   413   415     9 
  412   410   413   432     9 
  410   413   415   416     9 
  414   413   415   416     9 
  432   413   415   416     9 
  410   413   432   433     9 
  410   413   432   434     9 
  410   413   432   438     9 
  414   413   432   433     9 
  414   413   432   434     9 
  414   413   432   438     9 
  415   413   432   433     9 
  415   413   432   434     9 
  415   413   432   438     9 
  413   415   416   417     9 
  413   415   416   418     9 
  413   415   416   434     9 
  415   416   418   419     9 
  415   416   418   431     9 
  417   416   418   419     9 
  417   416   418   431     9 
  434   416   418   419     9 
  434   416   418   431     9 
  415   416   434   432     9 
  415   416   434   435     9 
  415   416   434   436     9 
  417   416   434   432     9 
  417   416   434   435     9 
  417   416   434   436     9 
  418   416   434   432     9 
  418   416   434   435     9 
  418   416   434   436     9 
  416   418   419   420     9 
  416   418   419   421     9 
  431   418   419   420     9 
  431   418   419   421     9 
  416   418   431   422     9 
  416   418   431   430     9 
  419   418   431   422     9 
  419   418   431   430     9 
  418   419   421   422     9 
  420   419   421   422     9 
  419   421   422   423     9 
  419   421   422   431     9 
  421   422   423   424     9 
  421   422   423   427     9 
  431   422   423   424     9 
  431   422   423   427     9 
  421   422   431   418     9 
  421   422   431   430     9 
  423   422   431   418     9 
  423   422   431   430     9 
  422   423   424   425     9 
  422   423   424   426     9 
  427   423   424   425     9 
  427   423   424   426     9 
  422   423   427   428     9 
  424   423   427   428     9 
  423   427   428   429     9 
  423   427   428   430     9 
  427   428   430   431     9 
  429   428   430   431     9 
  428   430   431   418     9 
  428   430   431   422     9 
  413   432   434   416     9 
  413   432   434   435     9 
  413   432   434   436     9 
  433   432   434   416     9 
  433   432   434   435     9 
  433   432   434   436     9 
  438   432   434   416     9 
  438   432   434   435     9 
  438   432   434   436     9 
  413   432   438   439     9 
  433   432   438   439     9 
  434   432   438   439     9 
  416   434   436   437     9 
  432   434   436   437     9 
  435   434   436   437     9 
  432   438   439   440     9 
  432   438   439   441     9 
  432   438   439   442     9 
  438   439   442   443     9 
  440   439   442   443     9 
  441   439   442   443     9 
  439   442   443   444     9 
  439   442   443   445     9 
  439   442   443   446     9 
  442   443   446   447     9 
  442   443   446   448     9 
  442   443   446   462     9 
  444   443   446   447     9 
  444   443   446   448     9 
  444   443   446   462     9 
  445   443   446   447     9 
  445   443   446   448     9 
  445   443   446   462     9 
  443   446   448   449     9 
  447   446   448   449     9 
  462   446   448   449     9 
  443   446   462   463     9 
  443   446   462   464     9 
  443   446   462   468     9 
  447   446   462   463     9 
  447   446   462   464     9 
  447   446   462   468     9 
  448   446   462   463     9 
  448   446   462   464     9 
  448   446   462   468     9 
  446   448   449   450     9 
  446   448   449   451     9 
  446   448   449   464     9 
  448   449   451   452     9 
  448   449   451   460     9 
  450   449   451   452     9 
  450   449   451   460     9 
  464   449   451   452     9 
  464   449   451   460     9 
  448   449   464   462     9 
  448   449   464   465     9 
  448   449   464   466     9 
  450   449   464   462     9 
  450   449   464   465     9 
  450   449   464   466     9 
  451   449   464   462     9 
  451   449   464   465     9 
  451   449   464   466     9 
  449   451   452   453     9 
  449   451   452   454     9 
  460   451   452   453     9 
  460   451   452   454     9 
  449   451   460   458     9 
  449   451   460   461     9 
  452   451   460   458     9 
  452   451   460   461     9 
  451   452   454   455     9 
  451   452   454   456     9 
  453   452   454   455     9 
  453   452   454   456     9 
  452   454   456   457     9 
  452   454   456   458     9 
  455   454   456   457     9 
  455   454   456   458     9 
  454   456   458   459     9 
  454   456   458   460     9 
  457   456   458   459     9 
  457   456   458   460     9 
  456   458   460   451     9 
  456   458   460   461     9 
  459   458   460   451     9 
  459   458   460   461     9 
  446   462   464   449     9 
  446   462   464   465     9 
  446   462   464   466     9 
  463   462   464   449     9 
  463   462   464   465     9 
  463   462   464   466     9 
  468   462   464   449     9 
  468   462   464   465     9 
  468   462   464   466     9 
  446   462   468   469     9 
  463   462   468   469     9 
  464   462   468   469     9 
  449   464   466   467     9 
  462   464   466   467     9 
  465   464   466   467     9 
  462   468   469   470     9 
  462   468   469   471     9 
  462   468   469   472     9 
  468   469   472   473     9 
  470   469   472   473     9 
  471   469   472   473     9 
  469   472   473   474     9 
  469   472   473   475     9 
  469   472   473   476     9 
  472   473   476   477     9 
  472   473   476   478     9 
  472   473   476   493     9 
  474   473   476   477     9 
  474   473   476   478     9 
  474   473   476   493     9 
  475   473   476   477     9 
  475   473   476   478     9 
  475   473   476   493     9 
  473   476   478   479     9 
  477   476   478   479     9 
  493   476   478   479     9 
  473   476   493   494     9 
  473   476   493   495     9 
  473   476   493   499     9 
  477   476   493   494     9 
  477   476   493   495     9 
  477   476   493   499     9 
  478   476   493   494     9 
  478   476   493   495     9 
  478   476   493   499     9 
  476   478   479   480     9 
  476   478   479   481     9 
  476   478   479   495     9 
  478   479   481   482     9 
  478   479   481   491     9 
  480   479   481   482     9 
  480   479   481   491     9 
  495   479   481   482     9 
  495   479   481   491     9 
  478   479   495   493     9 
  478   479   495   496     9 
  478   479   495   497     9 
  480   479   495   493     9 
  480   479   495   496     9 
  480   479   495   497     9 
  481   479   495   493     9 
  481   479   495   496     9 
  481   479   495   497     9 
  479   481   482   483     9 
  479   481   482   484     9 
  491   481   482   483     9 
  491   481   482   484     9 
  479   481   491   490     9 
  479   481   491   492     9 
  482   481   491   490     9 
  482   481   491   492     9 
  481   482   484   485     9 
  481   482   484   486     9 
  483   482   484   485     9 
  483   482   484   486     9 
  482   484   486   487     9 
  482   484   486   490     9 
  485   484   486   487     9 
  485   484   486   490     9 
  484   486   487   488     9 
  484   486   487   489     9 
  490   486   487   488     9 
  490   486   487   489     9 
  484   486   490   491     9 
  487   486   490   491     9 
  486   490   491   481     9 
  486   490   491   492     9 
  476   493   495   479     9 
  476   493   495   496     9 
  476   493   495   497     9 
  494   493   495   479     9 
  494   493   495   496     9 
  494   493   495   497     9 
  499   493   495   479     9 
  499   493   495   496     9 
  499   493   495   497     9 
  476   493   499   500     9 
  494   493   499   500     9 
  495   493   499   500     9 
  479   495   497   498     9 
  493   495   497   498     9 
  496   495   497   498     9 
  493   499   500   501     9 
  493   499   500   502     9 
  493   499   500   503     9 
  499   500   503   504     9 
  501   500   503   504     9 
  502   500   503   504     9 
  500   503   504   505     9 
  500   503   504   506     9 
  500   503   504   507     9 
  503   504   507   508     9 
  503   504   507   509     9 
  503   504   507   524     9 
  505   504   507   508     9 
  505   504   507   509     9 
  505   504   507   524     9 
  506   504   507   508     9 
  506   504   507   509     9 
  506   504   507   524     9 
  504   507   509   510     9 
  508   507   509   510     9 
  524   507   509   510     9 
  504   507   524   525     9 
  504   507   524   526     9 
  504   507   524   530     9 
  508   507   524   525     9 
  508   507   524   526     9 
  508   507   524   530     9 
  509   507   524   525     9 
  509   507   524   526     9 
  509   507   524   530     9 
  507   509   510   511     9 
  507   509   510   512     9 
  507   509   510   526     9 
  509   510   512   513     9 
  509   510   512   522     9 
  511   510   512   513     9 
  511   510   512   522     9 
  526   510   512   513     9 
  526   510   512   522     9 
  509   510   526   524     9 
  509   510   526   527     9 
  509   510   526   528     9 
  511   510   526   524     9 
  511   510   526   527     9 
  511   510   526   528     9 
  512   510   526   524     9 
  512   510   526   527     9 
  512   510   526   528     9 
  510   512   513   514     9 
  510   512   513   515     9 
  522   512   513   514     9 
  522   512   513   515     9 
  510   512   522   521     9 
  510   512   522   523     9 
  513   512   522   521     9 
  513   512   522   523     9 
  512   513   515   516     9 
  512   513   515   517     9 
  514   513   515   516     9 
  514   513   515   517     9 
  513   515   517   518     9 
  513   515   517   521     9 
  516   515   517   518     9 
  516   515   517   521     9 
  515   517   518   519     9 
  515   517   518   520     9 
  521   517   518   519     9 
  521   517   518   520     9 
  515   517   521   522     9 
  518   517   521   522     9 
  517   521   522   512     9 
  517   521   522   523     9 
  507   524   526   510     9 
  507   524   526   527     9 
  507   524   526   528     9 
  525   524   526   510     9 
  525   524   526   527     9 
  525   524   526   528     9 
  530   524   526   510     9 
  530   524   526   527     9 
  530   524   526   528     9 
  507   524   530   531     9 
  525   524   530   531     9 
  526   524   530   531     9 
  510   526   528   529     9 
  524   526   528   529     9 
  527   526   528   529     9 
  524   530   531   532     9 
  524   530   531   533     9 
  524   530   531   534     9 
  530   531   534   535     9 
  532   531   534   535     9 
  533   531   534   535     9 
  531   534   535   536     9 
  531   534   535   537     9 
  531   534   535   538     9 
  534   535   538   539     9 
  534   535   538   540     9 
  534   535   538   555     9 
  536   535   538   539     9 
  536   535   538   540     9 
  536   535   538   555     9 
  537   535   538   539     9 
  537   535   538   540     9 
  537   535   538   555     9 
  535   538   540   541     9 
  539   538   540   541     9 
  555   538   540   541     9 
  535   538   555   556     9 
  535   538   555   557     9 
  535   538   555   561     9 
  539   538   555   556     9 
  539   538   555   557     9 
  539   538   555   561     9 
  540   538   555   556     9 
  540   538   555   557     9 
  540   538   555   561     9 
  538   540   541   542     9 
  538   540   541   543     9 
  538   540   541   557     9 
  540   541   543   544     9 
  540   541   543   553     9 
  542   541   543   544     9 
  542   541   543   553     9 
  557   541   543   544     9 
  557   541   543   553     9 
  540   541   557   555     9 
  540   541   557   558     9 
  540   541   557   559     9 
  542   541   557   555     9 
  542   541   557   558     9 
  542   541   557   559     9 
  543   541   557   555     9 
  543   541   557   558     9 
  543   541   557   559     9 
  541   543   544   545     9 
  541   543   544   546     9 
  553   543   544   545     9 
  553   543   544   546     9 
  541   543   553   552     9 
  541   543   553   554     9 
  544   543   553   552     9 
  544   543   553   554     9 
  543   544   546   547     9 
  543   544   546   548     9 
  545   544   546   547     9 
  545   544   546   548     9 
  544   546   548   549     9 
  544   546   548   552     9 
  547   546   548   549     9 
  547   546   548   552     9 
  546   548   549   550     9 
  546   548   549   551     9 
  552   548   549   550     9 
  552   548   549   551     9 
  546   548   552   553     9 
  549   548   552   553     9 
  548   552   553   543     9 
  548   552   553   554     9 
  538   555   557   541     9 
  538   555   557   558     9 
  538   555   557   559     9 
  556   555   557   541     9 
  556   555   557   558     9 
  556   555   557   559     9 
  561   555   557   541     9 
  561   555   557   558     9 
  561   555   557   559     9 
  538   555   561   562     9 
  556   555   561   562     9 
  557   555   561   562     9 
  541   557   559   560     9 
  555   557   559   560     9 
  558   557   559   560     9 
  555   561   562   563     9 
  555   561   562   564     9 
  555   561   562   565     9 
  561   562   565   566     9 
  563   562   565   566     9 
  564   562   565   566     9 
  562   565   566   567     9 
  562   565   566   568     9 
  562   565   566   569     9 
  565   566   569   570     9 
  565   566   569   571     9 
  565   566   569   585     9 
  567   566   569   570     9 
  567   566   569   571     9 
  567   566   569   585     9 
  568   566   569   570     9 
  568   566   569   571     9 
  568   566   569   585     9 
  566   569   571   572     9 
  570   569   571   572     9 
  585   569   571   572     9 
  566   569   585   586     9 
  566   569   585   587     9 
  566   569   585   591     9 
  570   569   585   586     9 
  570   569   585   587     9 
  570   569   585   591     9 
  571   569   585   586     9 
  571   569   585   587     9 
  571   569   585   591     9 
  569   571   572   573     9 
  569   571   572   574     9 
  569   571   572   587     9 
  571   572   574   575     9 
  571   572   574   583     9 
  573   572   574   575     9 
  573   572   574   583     9 
  587   572   574   575     9 
  587   572   574   583     9 
  571   572   587   585     9 
  571   572   587   588     9 
  571   572   587   589     9 
  573   572   587   585     9 
  573   572   587   588     9 
  573   572   587   589     9 
  574   572   587   585     9 
  574   572   587   588     9 
  574   572   587   589     9 
  572   574   575   576     9 
  572   574   575   577     9 
  583   574   575   576     9 
  583   574   575   577     9 
  572   574   583   581     9 
  572   574   583   584     9 
  575   574   583   581     9 
  575   574   583   584     9 
  574   575   577   578     9 
  574   575   577   579     9 
  576   575   577   578     9 
  576   575   577   579     9 
  575   577   579   580     9 
  575   577   579   581     9 
  578   577   579   580     9 
  578   577   579   581     9 
  577   579   581   582     9 
  577   579   581   583     9 
  580   579   581   582     9 
  580   579   581   583     9 
  579   581   583   574     9 
  579   581   583   584     9 
  582   581   583   574     9 
  582   581   583   584     9 
  569   585   587   572     9 
  569   585   587   588     9 
  569   585   587   589     9 
  586   585   587   572     9 
  586   585   587   588     9 
  586   585   587   589     9 
  591   585   587   572     9 
  591   585   587   588     9 
  591   585   587   589     9 
  569   585   591   592     9 
  586   585   591   592     9 
  587   585   591   592     9 
  572   587   589   590     9 
  585   587   589   590     9 
  588   587   589   590     9 
  585   591   592   593     9 
  585   591   592   594     9 
  585   591   592   595     9 
  591   592   595   596     9 
  593   592   595   596     9 
  594   592   595   596     9 
  592   595   596   597     9 
  592   595   596   598     9 
  592   595   596   599     9 
  595   596   599   600     9 
  595   596   599   601     9 
  595   596   599   616     9 
  597   596   599   600     9 
  597   596   599   601     9 
  597   596   599   616     9 
  598   596   599   600     9 
  598   596   599   601     9 
  598   596   599   616     9 
  596   599   601   602     9 
  600   599   601   602     9 
  616   599   601   602     9 
  596   599   616   617     9 
  596   599   616   618     9 
  596   599   616   622     9 
  600   599   616   617     9 
  600   599   616   618     9 
  600   599   616   622     9 
  601   599   616   617     9 
  601   599   616   618     9 
  601   599   616   622     9 
  599   601   602   603     9 
  599   601   602   604     9 
  599   601   602   618     9 
  601   602   604   605     9 
  601   602   604   614     9 
  603   602   604   605     9 
  603   602   604   614     9 
  618   602   604   605     9 
  618   602   604   614     9 
  601   602   618   616     9 
  601   602   618   619     9 
  601   602   618   620     9 
  603   602   618   616     9 
  603   602   618   619     9 
  603   602   618   620     9 
  604   602   618   616     9 
  604   602   618   619     9 
  604   602   618   620     9 
  602   604   605   606     9 
  602   604   605   607     9 
  614   604   605   606     9 
  614   604   605   607     9 
  602   604   614   613     9 
  602   604   614   615     9 
  605   604   614   613     9 
  605   604   614   615     9 
  604   605   607   608     9 
  604   605   607   609     9 
  606   605   607   608     9 
  606   605   607   609     9 
  605   607   609   610     9 
  605   607   609   613     9 
  608   607   609   610     9 
  608   607   609   613     9 
  607   609   610   611     9 
  607   609   610   612     9 
  613   609   610   611     9 
  613   609   610   612     9 
  607   609   613   614     9 
  610   609   613   614     9 
  609   613   614   604     9 
  609   613   614   615     9 
  599   616   618   602     9 
  599   616   618   619     9 
  599   616   618   620     9 
  617   616   618   602     9 
  617   616   618   619     9 
  617   616   618   620     9 
  622   616   618   602     9 
  622   616   618   619     9 
  622   616   618   620     9 
  599   616   622   623     9 
  617   616   622   623     9 
  618   616   622   623     9 
  602   618   620   621     9 
  616   618   620   621     9 
  619   618   620   621     9 
  616   622   623   624     9 
  616   622   623   625     9 
  616   622   623   626     9 
  622   623   626   627     9 
  624   623   626   627     9 
  625   623   626   627     9 
  623   626   627   628     9 
  623   626   627   629     9 
  623   626   627   630     9 
  626   627   630   631     9 
  626   627   630   632     9 
  626   627   630   647     9 
  628   627   630   631     9 
  628   627   630   632     9 
  628   627   630   647     9 
  629   627   630   631     9 
  629   627   630   632     9 
  629   627   630   647     9 
  627   630   632   633     9 
  631   630   632   633     9 
  647   630   632   633     9 
  627   630   647   648     9 
  627   630   647   649     9 
  627   630   647   653     9 
  631   630   647   648     9 
  631   630   647   649     9 
  631   630   647   653     9 
  632   630   647   648     9 
  632   630   647   649     9 
  632   630   647   653     9 
  630   632   633   634     9 
  630   632   633   635     9 
  630   632   633   649     9 
  632   633   635   636     9 
  632   633   635   645     9 
  634   633   635   636     9 
  634   633   635   645     9 
  649   633   635   636     9 
  649   633   635   645     9 
  632   633   649   647     9 
  632   633   649   650     9 
  632   633   649   651     9 
  634   633   649   647     9 
  634   633   649   650     9 
  634   633   649   651     9 
  635   633   649   647     9 
  635   633   649   650     9 
  635   633   649   651     9 
  633   635   636   637     9 
  633   635   636   638     9 
  645   635   636   637     9 
  645   635   636   638     9 
  633   635   645   644     9 
  633   635   645   646     9 
  636   635   645   644     9 
  636   635   645   646     9 
  635   636   638   639     9 
  635   636   638   640     9 
  637   636   638   639     9 
  637   636   638   640     9 
  636   638   640   641     9 
  636   638   640   644     9 
  639   638   640   641     9 
  639   638   640   644     9 
  638   640   641   642     9 
  638   640   641   643     9 
  644   640   641   642     9 
  644   640   641   643     9 
  638   640   644   645     9 
  641   640   644   645     9 
  640   644   645   635     9 
  640   644   645   646     9 
  630   647   649   633     9 
  630   647   649   650     9 
  630   647   649   651     9 
  648   647   649   633     9 
  648   647   649   650     9 
  648   647   649   651     9 
  653   647   649   633     9 
  653   647   649   650     9 
  653   647   649   651     9 
  630   647   653   654     9 
  648   647   653   654     9 
  649   647   653   654     9 
  633   649   651   652     9 
  647   649   651   652     9 
  650   649   651   652     9 

[ dihedrals ]
;  ai    aj    ak    al funct            c0            c1            c2            c3
    9    11    12    24     4 
   11    14    12    13     4 
   15    17    16    20     4 
   16    18    17    19     4 
   20    23    21    22     4 
   42    44    45    53     4 
   44    47    45    46     4 
   44    51    53    54     4 
   45    49    47    48     4 
   47    51    49    50     4 
   49    53    51    52     4 
   72    74    75    84     4 
   74    77    75    76     4 
   74    83    84    85     4 
   75    79    77    78     4 
   77    80    79    83     4 
   79    81    80    82     4 
  103   105   106   114     4 
  105   108   106   107     4 
  105   112   114   115     4 
  106   110   108   109     4 
  108   112   110   111     4 
  110   114   112   113     4 
  133   135   136   145     4 
  135   138   136   137     4 
  135   144   145   146     4 
  136   140   138   139     4 
  138   141   140   144     4 
  140   142   141   143     4 
  164   166   167   176     4 
  166   169   167   168     4 
  166   175   176   177     4 
  167   171   169   170     4 
  169   172   171   175     4 
  171   173   172   174     4 
  195   197   198   206     4 
  197   200   198   199     4 
  197   204   206   207     4 
  198   202   200   201     4 
  200   204   202   203     4 
  202   206   204   205     4 
  225   227   228   240     4 
  227   230   228   229     4 
  231   233   232   236     4 
  232   234   233   235     4 
  236   239   237   238     4 
  258   260   261   273     4 
  260   263   261   262     4 
  264   266   265   269     4 
  265   267   266   268     4 
  269   272   270   271     4 
  291   293   294   302     4 
  293   296   294   295     4 
  293   300   302   303     4 
  294   298   296   297     4 
  296   300   298   299     4 
  298   302   300   301     4 
  321   323   324   337     4 
  323   326   324   325     4 
  327   330   328   329     4 
  328   332   330   331     4 
  332   334   333   335     4 
  333   330   332   336     4 
  355   357   358   367     4 
  357   360   358   359     4 
  357   366   367   368     4 
  358   362   360   361     4 
  360   363   362   366     4 
  362   364   363   365     4 
  386   388   389   397     4 
  388   391   389   390     4 
  388   395   397   398     4 
  389   393   391   392     4 
  391   395   393   394     4 
  393   397   395   396     4 
  416   418   419   431     4 
  418   421   419   420     4 
  422   424   423   427     4 
  423   425   424   426     4 
  427   430   428   429     4 
  449   451   452   460     4 
  451   454   452   453     4 
  451   458   460   461     4 
  452   456   454   455     4 
  454   458   456   457     4 
  456   460   458   459     4 
  479   481   482   491     4 
  481   484   482   483     4 
  481   490   491   492     4 
  482   486   484   485     4 
  484   487   486   490     4 
  486   488   487   489     4 
  510   512   513   522     4 
  512   515   513   514     4 
  512   521   522   523     4 
  513   517   515   516     4 
  515   518   517   521     4 
  517   519   518   520     4 
  541   543   544   553     4 
  543   546   544   545     4 
  543   552   553   554     4 
  544   548   546   547     4 
  546   549   548   552     4 
  548   550   549   551     4 
  572   574   575   583     4 
  574   577   575   576     4 
  574   581   583   584     4 
  575   579   577   578     4 
  577   581   579   580     4 
  579   583   581   582     4 
  602   604   605   614     4 
  604   607   605   606     4 
  604   613   614   615     4 
  605   609   607   608     4 
  607   610   609   613     4 
  609   611   610   612     4 
  633   635   636   645     4 
  635   638   636   637     4 
  635   644   645   646     4 
  636   640   638   639     4 
  638   641   640   644     4 
  640   642   641   643     4 

; Include Position restraint file
#ifdef POSRES
#include "posre_RNA_chain_C.itp"
#endif

