;
;	File 'topol.top' was generated
;	By user: unknown (1503634736)
;	On host: ghpc005
;	At date: Wed Oct 16 01:36:39 2024
;
;	This is a standalone topology file
;
;	Created by:
;	                    :-) GROMACS - gmx pdb2gmx, 2024.2 (-:
;	
;	Executable:   /data/home/mrichte3/gromacs-2024.2/install/bin/gmx
;	Data prefix:  /data/home/mrichte3/gromacs-2024.2/install
;	Working dir:  /data/home/mrichte3/RNASeq/test_alignment/md0
;	Command line:
;	  gmx pdb2gmx -f pdb_with_modification.pdb -o structure_processed.gro -p topol.top -i posre.itp
;	Force field was read from the standard GROMACS share directory.
;

; Include forcefield parameters
#include "amber99sb_custom.ff/forcefield.itp"

; Include chain topologies
#include "topol_Protein_chain_A.itp"
#include "topol_RNA_chain_B.itp"
#include "topol_RNA_chain_C.itp"

; Include water topology
#include "amber99sb_custom.ff/tip3p.itp"

#ifdef POSRES_WATER
; Position restraint for each water oxygen
[ position_restraints ]
;  i funct       fcx        fcy        fcz
   1    1       1000       1000       1000
#endif

; Include topology for ions
#include "amber99sb_custom.ff/ions.itp"

[ system ]
; Name
Protein in water

[ molecules ]
; Compound        #mols
Protein_chain_A     1
RNA_chain_B         1
RNA_chain_C         1
SOL         60387
NA               192
CL               181
