;
;	File 'topol_RNA_chain_B.itp' was generated
;	By user: unknown (1503634736)
;	On host: ghpc005
;	At date: Fri Oct 18 14:46:44 2024
;
;	This is a include topology file
;
;	Created by:
;	                    :-) GROMACS - gmx pdb2gmx, 2024.2 (-:
;	
;	Executable:   /data/home/mrichte3/gromacs-2024.2/install/bin/gmx
;	Data prefix:  /data/home/mrichte3/gromacs-2024.2/install
;	Working dir:  /data/home/mrichte3/RNASeq/test_alignment/md0
;	Command line:
;	  gmx pdb2gmx -f pdb_with_modification.pdb -o structure_processed.gro -p topol.top -i posre.itp
;	Force field was read from the standard GROMACS share directory.
;

[ moleculetype ]
; Name            nrexcl
RNA_chain_B         3

[ atoms ]
;   nr       type  resnr residue  atom   cgnr     charge       mass  typeB    chargeB      massB
; residue   1 A   rtp RA5  q -0.3
     1         OH      1      A    O5'      1    -0.6223         16
     2         HO      1      A    H5T      2     0.4295      1.008
     3         CT      1      A    C5'      3     0.0558      12.01
     4         H1      1      A   H5'1      4     0.0679      1.008
     5         H1      1      A   H5'2      5     0.0679      1.008
     6         CT      1      A    C4'      6     0.1065      12.01
     7         H1      1      A    H4'      7     0.1174      1.008
     8         OS      1      A    O4'      8    -0.3548         16
     9         CT      1      A    C1'      9     0.0394      12.01
    10         H2      1      A    H1'     10     0.2007      1.008
    11         N*      1      A     N9     11    -0.0251      14.01
    12         CK      1      A     C8     12     0.2006      12.01
    13         H5      1      A     H8     13     0.1553      1.008
    14         NB      1      A     N7     14    -0.6073      14.01
    15         CB      1      A     C5     15     0.0515      12.01
    16         CA      1      A     C6     16     0.7009      12.01
    17         N2      1      A     N6     17    -0.9019      14.01
    18          H      1      A    H61     18     0.4115      1.008
    19          H      1      A    H62     19     0.4115      1.008
    20         NC      1      A     N1     20    -0.7615      14.01
    21         CQ      1      A     C2     21     0.5875      12.01
    22         H5      1      A     H2     22     0.0473      1.008
    23         NC      1      A     N3     23    -0.6997      14.01
    24         CB      1      A     C4     24     0.3053      12.01
    25         CT      1      A    C3'     25     0.2022      12.01
    26         H1      1      A    H3'     26     0.0615      1.008
    27         CT      1      A    C2'     27      0.067      12.01
    28         H1      1      A   H2'1     28     0.0972      1.008
    29         OH      1      A    O2'     29    -0.6139         16
    30         HO      1      A   HO'2     30     0.4186      1.008
    31         OS      1      A    O3'     31    -0.5246         16   ; qtot -0.3081
; residue   2 U   rtp RU   q -1.0
    32          P      2      U      P     32     1.1662      30.97
    33         O2      2      U    O1P     33     -0.776         16
    34         O2      2      U    O2P     34     -0.776         16
    35         OS      2      U    O5'     35    -0.4989         16
    36         CT      2      U    C5'     36     0.0558      12.01
    37         H1      2      U   H5'1     37     0.0679      1.008
    38         H1      2      U   H5'2     38     0.0679      1.008
    39         CT      2      U    C4'     39     0.1065      12.01
    40         H1      2      U    H4'     40     0.1174      1.008
    41         OS      2      U    O4'     41    -0.3548         16
    42         CT      2      U    C1'     42     0.0674      12.01
    43         H2      2      U    H1'     43     0.1824      1.008
    44         N*      2      U     N1     44     0.0418      14.01
    45         CM      2      U     C6     45    -0.1126      12.01
    46         H4      2      U     H6     46     0.2188      1.008
    47         CM      2      U     C5     47    -0.3635      12.01
    48         HA      2      U     H5     48     0.1811      1.008
    49          C      2      U     C4     49     0.5952      12.01
    50          O      2      U     O4     50    -0.5761         16
    51         NA      2      U     N3     51    -0.3549      14.01
    52          H      2      U     H3     52     0.3154      1.008
    53          C      2      U     C2     53     0.4687      12.01
    54          O      2      U     O2     54    -0.5477         16
    55         CT      2      U    C3'     55     0.2022      12.01
    56         H1      2      U    H3'     56     0.0615      1.008
    57         CT      2      U    C2'     57      0.067      12.01
    58         H1      2      U   H2'1     58     0.0972      1.008
    59         OH      2      U    O2'     59    -0.6139         16
    60         HO      2      U   HO'2     60     0.4186      1.008
    61         OS      2      U    O3'     61    -0.5246         16   ; qtot -1.308
; residue   3 A   rtp RA   q -1.0
    62          P      3      A      P     62     1.1662      30.97
    63         O2      3      A    O1P     63     -0.776         16
    64         O2      3      A    O2P     64     -0.776         16
    65         OS      3      A    O5'     65    -0.4989         16
    66         CT      3      A    C5'     66     0.0558      12.01
    67         H1      3      A   H5'1     67     0.0679      1.008
    68         H1      3      A   H5'2     68     0.0679      1.008
    69         CT      3      A    C4'     69     0.1065      12.01
    70         H1      3      A    H4'     70     0.1174      1.008
    71         OS      3      A    O4'     71    -0.3548         16
    72         CT      3      A    C1'     72     0.0394      12.01
    73         H2      3      A    H1'     73     0.2007      1.008
    74         N*      3      A     N9     74    -0.0251      14.01
    75         CK      3      A     C8     75     0.2006      12.01
    76         H5      3      A     H8     76     0.1553      1.008
    77         NB      3      A     N7     77    -0.6073      14.01
    78         CB      3      A     C5     78     0.0515      12.01
    79         CA      3      A     C6     79     0.7009      12.01
    80         N2      3      A     N6     80    -0.9019      14.01
    81          H      3      A    H61     81     0.4115      1.008
    82          H      3      A    H62     82     0.4115      1.008
    83         NC      3      A     N1     83    -0.7615      14.01
    84         CQ      3      A     C2     84     0.5875      12.01
    85         H5      3      A     H2     85     0.0473      1.008
    86         NC      3      A     N3     86    -0.6997      14.01
    87         CB      3      A     C4     87     0.3053      12.01
    88         CT      3      A    C3'     88     0.2022      12.01
    89         H1      3      A    H3'     89     0.0615      1.008
    90         CT      3      A    C2'     90      0.067      12.01
    91         H1      3      A   H2'1     91     0.0972      1.008
    92         OH      3      A    O2'     92    -0.6139         16
    93         HO      3      A   HO'2     93     0.4186      1.008
    94         OS      3      A    O3'     94    -0.5246         16   ; qtot -2.308
; residue   4 G   rtp RG   q -1.0
    95          P      4      G      P     95     1.1662      30.97
    96         O2      4      G    O1P     96     -0.776         16
    97         O2      4      G    O2P     97     -0.776         16
    98         OS      4      G    O5'     98    -0.4989         16
    99         CT      4      G    C5'     99     0.0558      12.01
   100         H1      4      G   H5'1    100     0.0679      1.008
   101         H1      4      G   H5'2    101     0.0679      1.008
   102         CT      4      G    C4'    102     0.1065      12.01
   103         H1      4      G    H4'    103     0.1174      1.008
   104         OS      4      G    O4'    104    -0.3548         16
   105         CT      4      G    C1'    105     0.0191      12.01
   106         H2      4      G    H1'    106     0.2006      1.008
   107         N*      4      G     N9    107     0.0492      14.01
   108         CK      4      G     C8    108     0.1374      12.01
   109         H5      4      G     H8    109      0.164      1.008
   110         NB      4      G     N7    110    -0.5709      14.01
   111         CB      4      G     C5    111     0.1744      12.01
   112          C      4      G     C6    112      0.477      12.01
   113          O      4      G     O6    113    -0.5597         16
   114         NA      4      G     N1    114    -0.4787      14.01
   115          H      4      G     H1    115     0.3424      1.008
   116         CA      4      G     C2    116     0.7657      12.01
   117         N2      4      G     N2    117    -0.9672      14.01
   118          H      4      G    H21    118     0.4364      1.008
   119          H      4      G    H22    119     0.4364      1.008
   120         NC      4      G     N3    120    -0.6323      14.01
   121         CB      4      G     C4    121     0.1222      12.01
   122         CT      4      G    C3'    122     0.2022      12.01
   123         H1      4      G    H3'    123     0.0615      1.008
   124         CT      4      G    C2'    124      0.067      12.01
   125         H1      4      G   H2'1    125     0.0972      1.008
   126         OH      4      G    O2'    126    -0.6139         16
   127         HO      4      G   HO'2    127     0.4186      1.008
   128         OS      4      G    O3'    128    -0.5246         16   ; qtot -3.308
; residue   5 G   rtp RG   q -1.0
   129          P      5      G      P    129     1.1662      30.97
   130         O2      5      G    O1P    130     -0.776         16
   131         O2      5      G    O2P    131     -0.776         16
   132         OS      5      G    O5'    132    -0.4989         16
   133         CT      5      G    C5'    133     0.0558      12.01
   134         H1      5      G   H5'1    134     0.0679      1.008
   135         H1      5      G   H5'2    135     0.0679      1.008
   136         CT      5      G    C4'    136     0.1065      12.01
   137         H1      5      G    H4'    137     0.1174      1.008
   138         OS      5      G    O4'    138    -0.3548         16
   139         CT      5      G    C1'    139     0.0191      12.01
   140         H2      5      G    H1'    140     0.2006      1.008
   141         N*      5      G     N9    141     0.0492      14.01
   142         CK      5      G     C8    142     0.1374      12.01
   143         H5      5      G     H8    143      0.164      1.008
   144         NB      5      G     N7    144    -0.5709      14.01
   145         CB      5      G     C5    145     0.1744      12.01
   146          C      5      G     C6    146      0.477      12.01
   147          O      5      G     O6    147    -0.5597         16
   148         NA      5      G     N1    148    -0.4787      14.01
   149          H      5      G     H1    149     0.3424      1.008
   150         CA      5      G     C2    150     0.7657      12.01
   151         N2      5      G     N2    151    -0.9672      14.01
   152          H      5      G    H21    152     0.4364      1.008
   153          H      5      G    H22    153     0.4364      1.008
   154         NC      5      G     N3    154    -0.6323      14.01
   155         CB      5      G     C4    155     0.1222      12.01
   156         CT      5      G    C3'    156     0.2022      12.01
   157         H1      5      G    H3'    157     0.0615      1.008
   158         CT      5      G    C2'    158      0.067      12.01
   159         H1      5      G   H2'1    159     0.0972      1.008
   160         OH      5      G    O2'    160    -0.6139         16
   161         HO      5      G   HO'2    161     0.4186      1.008
   162         OS      5      G    O3'    162    -0.5246         16   ; qtot -4.308
; residue   6 A   rtp RA   q -1.0
   163          P      6      A      P    163     1.1662      30.97
   164         O2      6      A    O1P    164     -0.776         16
   165         O2      6      A    O2P    165     -0.776         16
   166         OS      6      A    O5'    166    -0.4989         16
   167         CT      6      A    C5'    167     0.0558      12.01
   168         H1      6      A   H5'1    168     0.0679      1.008
   169         H1      6      A   H5'2    169     0.0679      1.008
   170         CT      6      A    C4'    170     0.1065      12.01
   171         H1      6      A    H4'    171     0.1174      1.008
   172         OS      6      A    O4'    172    -0.3548         16
   173         CT      6      A    C1'    173     0.0394      12.01
   174         H2      6      A    H1'    174     0.2007      1.008
   175         N*      6      A     N9    175    -0.0251      14.01
   176         CK      6      A     C8    176     0.2006      12.01
   177         H5      6      A     H8    177     0.1553      1.008
   178         NB      6      A     N7    178    -0.6073      14.01
   179         CB      6      A     C5    179     0.0515      12.01
   180         CA      6      A     C6    180     0.7009      12.01
   181         N2      6      A     N6    181    -0.9019      14.01
   182          H      6      A    H61    182     0.4115      1.008
   183          H      6      A    H62    183     0.4115      1.008
   184         NC      6      A     N1    184    -0.7615      14.01
   185         CQ      6      A     C2    185     0.5875      12.01
   186         H5      6      A     H2    186     0.0473      1.008
   187         NC      6      A     N3    187    -0.6997      14.01
   188         CB      6      A     C4    188     0.3053      12.01
   189         CT      6      A    C3'    189     0.2022      12.01
   190         H1      6      A    H3'    190     0.0615      1.008
   191         CT      6      A    C2'    191      0.067      12.01
   192         H1      6      A   H2'1    192     0.0972      1.008
   193         OH      6      A    O2'    193    -0.6139         16
   194         HO      6      A   HO'2    194     0.4186      1.008
   195         OS      6      A    O3'    195    -0.5246         16   ; qtot -5.308
; residue   7 U   rtp RU   q -1.0
   196          P      7      U      P    196     1.1662      30.97
   197         O2      7      U    O1P    197     -0.776         16
   198         O2      7      U    O2P    198     -0.776         16
   199         OS      7      U    O5'    199    -0.4989         16
   200         CT      7      U    C5'    200     0.0558      12.01
   201         H1      7      U   H5'1    201     0.0679      1.008
   202         H1      7      U   H5'2    202     0.0679      1.008
   203         CT      7      U    C4'    203     0.1065      12.01
   204         H1      7      U    H4'    204     0.1174      1.008
   205         OS      7      U    O4'    205    -0.3548         16
   206         CT      7      U    C1'    206     0.0674      12.01
   207         H2      7      U    H1'    207     0.1824      1.008
   208         N*      7      U     N1    208     0.0418      14.01
   209         CM      7      U     C6    209    -0.1126      12.01
   210         H4      7      U     H6    210     0.2188      1.008
   211         CM      7      U     C5    211    -0.3635      12.01
   212         HA      7      U     H5    212     0.1811      1.008
   213          C      7      U     C4    213     0.5952      12.01
   214          O      7      U     O4    214    -0.5761         16
   215         NA      7      U     N3    215    -0.3549      14.01
   216          H      7      U     H3    216     0.3154      1.008
   217          C      7      U     C2    217     0.4687      12.01
   218          O      7      U     O2    218    -0.5477         16
   219         CT      7      U    C3'    219     0.2022      12.01
   220         H1      7      U    H3'    220     0.0615      1.008
   221         CT      7      U    C2'    221      0.067      12.01
   222         H1      7      U   H2'1    222     0.0972      1.008
   223         OH      7      U    O2'    223    -0.6139         16
   224         HO      7      U   HO'2    224     0.4186      1.008
   225         OS      7      U    O3'    225    -0.5246         16   ; qtot -6.308
; residue   8 U   rtp RU   q -1.0
   226          P      8      U      P    226     1.1662      30.97
   227         O2      8      U    O1P    227     -0.776         16
   228         O2      8      U    O2P    228     -0.776         16
   229         OS      8      U    O5'    229    -0.4989         16
   230         CT      8      U    C5'    230     0.0558      12.01
   231         H1      8      U   H5'1    231     0.0679      1.008
   232         H1      8      U   H5'2    232     0.0679      1.008
   233         CT      8      U    C4'    233     0.1065      12.01
   234         H1      8      U    H4'    234     0.1174      1.008
   235         OS      8      U    O4'    235    -0.3548         16
   236         CT      8      U    C1'    236     0.0674      12.01
   237         H2      8      U    H1'    237     0.1824      1.008
   238         N*      8      U     N1    238     0.0418      14.01
   239         CM      8      U     C6    239    -0.1126      12.01
   240         H4      8      U     H6    240     0.2188      1.008
   241         CM      8      U     C5    241    -0.3635      12.01
   242         HA      8      U     H5    242     0.1811      1.008
   243          C      8      U     C4    243     0.5952      12.01
   244          O      8      U     O4    244    -0.5761         16
   245         NA      8      U     N3    245    -0.3549      14.01
   246          H      8      U     H3    246     0.3154      1.008
   247          C      8      U     C2    247     0.4687      12.01
   248          O      8      U     O2    248    -0.5477         16
   249         CT      8      U    C3'    249     0.2022      12.01
   250         H1      8      U    H3'    250     0.0615      1.008
   251         CT      8      U    C2'    251      0.067      12.01
   252         H1      8      U   H2'1    252     0.0972      1.008
   253         OH      8      U    O2'    253    -0.6139         16
   254         HO      8      U   HO'2    254     0.4186      1.008
   255         OS      8      U    O3'    255    -0.5246         16   ; qtot -7.308
; residue   9 C   rtp RC   q -1.0
   256          P      9      C      P    256     1.1662      30.97
   257         O2      9      C    O1P    257     -0.776         16
   258         O2      9      C    O2P    258     -0.776         16
   259         OS      9      C    O5'    259    -0.4989         16
   260         CT      9      C    C5'    260     0.0558      12.01
   261         H1      9      C   H5'1    261     0.0679      1.008
   262         H1      9      C   H5'2    262     0.0679      1.008
   263         CT      9      C    C4'    263     0.1065      12.01
   264         H1      9      C    H4'    264     0.1174      1.008
   265         OS      9      C    O4'    265    -0.3548         16
   266         CT      9      C    C1'    266     0.0066      12.01
   267         H2      9      C    H1'    267     0.2029      1.008
   268         N*      9      C     N1    268    -0.0484      14.01
   269         CM      9      C     C6    269     0.0053      12.01
   270         H4      9      C     H6    270     0.1958      1.008
   271         CM      9      C     C5    271    -0.5215      12.01
   272         HA      9      C     H5    272     0.1928      1.008
   273         CA      9      C     C4    273     0.8185      12.01
   274         N2      9      C     N4    274     -0.953      14.01
   275          H      9      C    H41    275     0.4234      1.008
   276          H      9      C    H42    276     0.4234      1.008
   277         NC      9      C     N3    277    -0.7584      14.01
   278          C      9      C     C2    278     0.7538      12.01
   279          O      9      C     O2    279    -0.6252         16
   280         CT      9      C    C3'    280     0.2022      12.01
   281         H1      9      C    H3'    281     0.0615      1.008
   282         CT      9      C    C2'    282      0.067      12.01
   283         H1      9      C   H2'1    283     0.0972      1.008
   284         OH      9      C    O2'    284    -0.6139         16
   285         HO      9      C   HO'2    285     0.4186      1.008
   286         OS      9      C    O3'    286    -0.5246         16   ; qtot -8.308
; residue  10 A   rtp RA   q -1.0
   287          P     10      A      P    287     1.1662      30.97
   288         O2     10      A    O1P    288     -0.776         16
   289         O2     10      A    O2P    289     -0.776         16
   290         OS     10      A    O5'    290    -0.4989         16
   291         CT     10      A    C5'    291     0.0558      12.01
   292         H1     10      A   H5'1    292     0.0679      1.008
   293         H1     10      A   H5'2    293     0.0679      1.008
   294         CT     10      A    C4'    294     0.1065      12.01
   295         H1     10      A    H4'    295     0.1174      1.008
   296         OS     10      A    O4'    296    -0.3548         16
   297         CT     10      A    C1'    297     0.0394      12.01
   298         H2     10      A    H1'    298     0.2007      1.008
   299         N*     10      A     N9    299    -0.0251      14.01
   300         CK     10      A     C8    300     0.2006      12.01
   301         H5     10      A     H8    301     0.1553      1.008
   302         NB     10      A     N7    302    -0.6073      14.01
   303         CB     10      A     C5    303     0.0515      12.01
   304         CA     10      A     C6    304     0.7009      12.01
   305         N2     10      A     N6    305    -0.9019      14.01
   306          H     10      A    H61    306     0.4115      1.008
   307          H     10      A    H62    307     0.4115      1.008
   308         NC     10      A     N1    308    -0.7615      14.01
   309         CQ     10      A     C2    309     0.5875      12.01
   310         H5     10      A     H2    310     0.0473      1.008
   311         NC     10      A     N3    311    -0.6997      14.01
   312         CB     10      A     C4    312     0.3053      12.01
   313         CT     10      A    C3'    313     0.2022      12.01
   314         H1     10      A    H3'    314     0.0615      1.008
   315         CT     10      A    C2'    315      0.067      12.01
   316         H1     10      A   H2'1    316     0.0972      1.008
   317         OH     10      A    O2'    317    -0.6139         16
   318         HO     10      A   HO'2    318     0.4186      1.008
   319         OS     10      A    O3'    319    -0.5246         16   ; qtot -9.308
; residue  11 U   rtp RU   q -1.0
   320          P     11      U      P    320     1.1662      30.97
   321         O2     11      U    O1P    321     -0.776         16
   322         O2     11      U    O2P    322     -0.776         16
   323         OS     11      U    O5'    323    -0.4989         16
   324         CT     11      U    C5'    324     0.0558      12.01
   325         H1     11      U   H5'1    325     0.0679      1.008
   326         H1     11      U   H5'2    326     0.0679      1.008
   327         CT     11      U    C4'    327     0.1065      12.01
   328         H1     11      U    H4'    328     0.1174      1.008
   329         OS     11      U    O4'    329    -0.3548         16
   330         CT     11      U    C1'    330     0.0674      12.01
   331         H2     11      U    H1'    331     0.1824      1.008
   332         N*     11      U     N1    332     0.0418      14.01
   333         CM     11      U     C6    333    -0.1126      12.01
   334         H4     11      U     H6    334     0.2188      1.008
   335         CM     11      U     C5    335    -0.3635      12.01
   336         HA     11      U     H5    336     0.1811      1.008
   337          C     11      U     C4    337     0.5952      12.01
   338          O     11      U     O4    338    -0.5761         16
   339         NA     11      U     N3    339    -0.3549      14.01
   340          H     11      U     H3    340     0.3154      1.008
   341          C     11      U     C2    341     0.4687      12.01
   342          O     11      U     O2    342    -0.5477         16
   343         CT     11      U    C3'    343     0.2022      12.01
   344         H1     11      U    H3'    344     0.0615      1.008
   345         CT     11      U    C2'    345      0.067      12.01
   346         H1     11      U   H2'1    346     0.0972      1.008
   347         OH     11      U    O2'    347    -0.6139         16
   348         HO     11      U   HO'2    348     0.4186      1.008
   349         OS     11      U    O3'    349    -0.5246         16   ; qtot -10.31
; residue  12 A   rtp RA   q -1.0
   350          P     12      A      P    350     1.1662      30.97
   351         O2     12      A    O1P    351     -0.776         16
   352         O2     12      A    O2P    352     -0.776         16
   353         OS     12      A    O5'    353    -0.4989         16
   354         CT     12      A    C5'    354     0.0558      12.01
   355         H1     12      A   H5'1    355     0.0679      1.008
   356         H1     12      A   H5'2    356     0.0679      1.008
   357         CT     12      A    C4'    357     0.1065      12.01
   358         H1     12      A    H4'    358     0.1174      1.008
   359         OS     12      A    O4'    359    -0.3548         16
   360         CT     12      A    C1'    360     0.0394      12.01
   361         H2     12      A    H1'    361     0.2007      1.008
   362         N*     12      A     N9    362    -0.0251      14.01
   363         CK     12      A     C8    363     0.2006      12.01
   364         H5     12      A     H8    364     0.1553      1.008
   365         NB     12      A     N7    365    -0.6073      14.01
   366         CB     12      A     C5    366     0.0515      12.01
   367         CA     12      A     C6    367     0.7009      12.01
   368         N2     12      A     N6    368    -0.9019      14.01
   369          H     12      A    H61    369     0.4115      1.008
   370          H     12      A    H62    370     0.4115      1.008
   371         NC     12      A     N1    371    -0.7615      14.01
   372         CQ     12      A     C2    372     0.5875      12.01
   373         H5     12      A     H2    373     0.0473      1.008
   374         NC     12      A     N3    374    -0.6997      14.01
   375         CB     12      A     C4    375     0.3053      12.01
   376         CT     12      A    C3'    376     0.2022      12.01
   377         H1     12      A    H3'    377     0.0615      1.008
   378         CT     12      A    C2'    378      0.067      12.01
   379         H1     12      A   H2'1    379     0.0972      1.008
   380         OH     12      A    O2'    380    -0.6139         16
   381         HO     12      A   HO'2    381     0.4186      1.008
   382         OS     12      A    O3'    382    -0.5246         16   ; qtot -11.31
; residue  13 U   rtp RU   q -1.0
   383          P     13      U      P    383     1.1662      30.97
   384         O2     13      U    O1P    384     -0.776         16
   385         O2     13      U    O2P    385     -0.776         16
   386         OS     13      U    O5'    386    -0.4989         16
   387         CT     13      U    C5'    387     0.0558      12.01
   388         H1     13      U   H5'1    388     0.0679      1.008
   389         H1     13      U   H5'2    389     0.0679      1.008
   390         CT     13      U    C4'    390     0.1065      12.01
   391         H1     13      U    H4'    391     0.1174      1.008
   392         OS     13      U    O4'    392    -0.3548         16
   393         CT     13      U    C1'    393     0.0674      12.01
   394         H2     13      U    H1'    394     0.1824      1.008
   395         N*     13      U     N1    395     0.0418      14.01
   396         CM     13      U     C6    396    -0.1126      12.01
   397         H4     13      U     H6    397     0.2188      1.008
   398         CM     13      U     C5    398    -0.3635      12.01
   399         HA     13      U     H5    399     0.1811      1.008
   400          C     13      U     C4    400     0.5952      12.01
   401          O     13      U     O4    401    -0.5761         16
   402         NA     13      U     N3    402    -0.3549      14.01
   403          H     13      U     H3    403     0.3154      1.008
   404          C     13      U     C2    404     0.4687      12.01
   405          O     13      U     O2    405    -0.5477         16
   406         CT     13      U    C3'    406     0.2022      12.01
   407         H1     13      U    H3'    407     0.0615      1.008
   408         CT     13      U    C2'    408      0.067      12.01
   409         H1     13      U   H2'1    409     0.0972      1.008
   410         OH     13      U    O2'    410    -0.6139         16
   411         HO     13      U   HO'2    411     0.4186      1.008
   412         OS     13      U    O3'    412    -0.5246         16   ; qtot -12.31
; residue  14 U   rtp RU   q -1.0
   413          P     14      U      P    413     1.1662      30.97
   414         O2     14      U    O1P    414     -0.776         16
   415         O2     14      U    O2P    415     -0.776         16
   416         OS     14      U    O5'    416    -0.4989         16
   417         CT     14      U    C5'    417     0.0558      12.01
   418         H1     14      U   H5'1    418     0.0679      1.008
   419         H1     14      U   H5'2    419     0.0679      1.008
   420         CT     14      U    C4'    420     0.1065      12.01
   421         H1     14      U    H4'    421     0.1174      1.008
   422         OS     14      U    O4'    422    -0.3548         16
   423         CT     14      U    C1'    423     0.0674      12.01
   424         H2     14      U    H1'    424     0.1824      1.008
   425         N*     14      U     N1    425     0.0418      14.01
   426         CM     14      U     C6    426    -0.1126      12.01
   427         H4     14      U     H6    427     0.2188      1.008
   428         CM     14      U     C5    428    -0.3635      12.01
   429         HA     14      U     H5    429     0.1811      1.008
   430          C     14      U     C4    430     0.5952      12.01
   431          O     14      U     O4    431    -0.5761         16
   432         NA     14      U     N3    432    -0.3549      14.01
   433          H     14      U     H3    433     0.3154      1.008
   434          C     14      U     C2    434     0.4687      12.01
   435          O     14      U     O2    435    -0.5477         16
   436         CT     14      U    C3'    436     0.2022      12.01
   437         H1     14      U    H3'    437     0.0615      1.008
   438         CT     14      U    C2'    438      0.067      12.01
   439         H1     14      U   H2'1    439     0.0972      1.008
   440         OH     14      U    O2'    440    -0.6139         16
   441         HO     14      U   HO'2    441     0.4186      1.008
   442         OS     14      U    O3'    442    -0.5246         16   ; qtot -13.31
; residue  15 A   rtp RA   q -1.0
   443          P     15      A      P    443     1.1662      30.97
   444         O2     15      A    O1P    444     -0.776         16
   445         O2     15      A    O2P    445     -0.776         16
   446         OS     15      A    O5'    446    -0.4989         16
   447         CT     15      A    C5'    447     0.0558      12.01
   448         H1     15      A   H5'1    448     0.0679      1.008
   449         H1     15      A   H5'2    449     0.0679      1.008
   450         CT     15      A    C4'    450     0.1065      12.01
   451         H1     15      A    H4'    451     0.1174      1.008
   452         OS     15      A    O4'    452    -0.3548         16
   453         CT     15      A    C1'    453     0.0394      12.01
   454         H2     15      A    H1'    454     0.2007      1.008
   455         N*     15      A     N9    455    -0.0251      14.01
   456         CK     15      A     C8    456     0.2006      12.01
   457         H5     15      A     H8    457     0.1553      1.008
   458         NB     15      A     N7    458    -0.6073      14.01
   459         CB     15      A     C5    459     0.0515      12.01
   460         CA     15      A     C6    460     0.7009      12.01
   461         N2     15      A     N6    461    -0.9019      14.01
   462          H     15      A    H61    462     0.4115      1.008
   463          H     15      A    H62    463     0.4115      1.008
   464         NC     15      A     N1    464    -0.7615      14.01
   465         CQ     15      A     C2    465     0.5875      12.01
   466         H5     15      A     H2    466     0.0473      1.008
   467         NC     15      A     N3    467    -0.6997      14.01
   468         CB     15      A     C4    468     0.3053      12.01
   469         CT     15      A    C3'    469     0.2022      12.01
   470         H1     15      A    H3'    470     0.0615      1.008
   471         CT     15      A    C2'    471      0.067      12.01
   472         H1     15      A   H2'1    472     0.0972      1.008
   473         OH     15      A    O2'    473    -0.6139         16
   474         HO     15      A   HO'2    474     0.4186      1.008
   475         OS     15      A    O3'    475    -0.5246         16   ; qtot -14.31
; residue  16 G   rtp RG   q -1.0
   476          P     16      G      P    476     1.1662      30.97
   477         O2     16      G    O1P    477     -0.776         16
   478         O2     16      G    O2P    478     -0.776         16
   479         OS     16      G    O5'    479    -0.4989         16
   480         CT     16      G    C5'    480     0.0558      12.01
   481         H1     16      G   H5'1    481     0.0679      1.008
   482         H1     16      G   H5'2    482     0.0679      1.008
   483         CT     16      G    C4'    483     0.1065      12.01
   484         H1     16      G    H4'    484     0.1174      1.008
   485         OS     16      G    O4'    485    -0.3548         16
   486         CT     16      G    C1'    486     0.0191      12.01
   487         H2     16      G    H1'    487     0.2006      1.008
   488         N*     16      G     N9    488     0.0492      14.01
   489         CK     16      G     C8    489     0.1374      12.01
   490         H5     16      G     H8    490      0.164      1.008
   491         NB     16      G     N7    491    -0.5709      14.01
   492         CB     16      G     C5    492     0.1744      12.01
   493          C     16      G     C6    493      0.477      12.01
   494          O     16      G     O6    494    -0.5597         16
   495         NA     16      G     N1    495    -0.4787      14.01
   496          H     16      G     H1    496     0.3424      1.008
   497         CA     16      G     C2    497     0.7657      12.01
   498         N2     16      G     N2    498    -0.9672      14.01
   499          H     16      G    H21    499     0.4364      1.008
   500          H     16      G    H22    500     0.4364      1.008
   501         NC     16      G     N3    501    -0.6323      14.01
   502         CB     16      G     C4    502     0.1222      12.01
   503         CT     16      G    C3'    503     0.2022      12.01
   504         H1     16      G    H3'    504     0.0615      1.008
   505         CT     16      G    C2'    505      0.067      12.01
   506         H1     16      G   H2'1    506     0.0972      1.008
   507         OH     16      G    O2'    507    -0.6139         16
   508         HO     16      G   HO'2    508     0.4186      1.008
   509         OS     16      G    O3'    509    -0.5246         16   ; qtot -15.31
; residue  17 G   rtp RG   q -1.0
   510          P     17      G      P    510     1.1662      30.97
   511         O2     17      G    O1P    511     -0.776         16
   512         O2     17      G    O2P    512     -0.776         16
   513         OS     17      G    O5'    513    -0.4989         16
   514         CT     17      G    C5'    514     0.0558      12.01
   515         H1     17      G   H5'1    515     0.0679      1.008
   516         H1     17      G   H5'2    516     0.0679      1.008
   517         CT     17      G    C4'    517     0.1065      12.01
   518         H1     17      G    H4'    518     0.1174      1.008
   519         OS     17      G    O4'    519    -0.3548         16
   520         CT     17      G    C1'    520     0.0191      12.01
   521         H2     17      G    H1'    521     0.2006      1.008
   522         N*     17      G     N9    522     0.0492      14.01
   523         CK     17      G     C8    523     0.1374      12.01
   524         H5     17      G     H8    524      0.164      1.008
   525         NB     17      G     N7    525    -0.5709      14.01
   526         CB     17      G     C5    526     0.1744      12.01
   527          C     17      G     C6    527      0.477      12.01
   528          O     17      G     O6    528    -0.5597         16
   529         NA     17      G     N1    529    -0.4787      14.01
   530          H     17      G     H1    530     0.3424      1.008
   531         CA     17      G     C2    531     0.7657      12.01
   532         N2     17      G     N2    532    -0.9672      14.01
   533          H     17      G    H21    533     0.4364      1.008
   534          H     17      G    H22    534     0.4364      1.008
   535         NC     17      G     N3    535    -0.6323      14.01
   536         CB     17      G     C4    536     0.1222      12.01
   537         CT     17      G    C3'    537     0.2022      12.01
   538         H1     17      G    H3'    538     0.0615      1.008
   539         CT     17      G    C2'    539      0.067      12.01
   540         H1     17      G   H2'1    540     0.0972      1.008
   541         OH     17      G    O2'    541    -0.6139         16
   542         HO     17      G   HO'2    542     0.4186      1.008
   543         OS     17      G    O3'    543    -0.5246         16   ; qtot -16.31
; residue  18 A   rtp RA   q -1.0
   544          P     18      A      P    544     1.1662      30.97
   545         O2     18      A    O1P    545     -0.776         16
   546         O2     18      A    O2P    546     -0.776         16
   547         OS     18      A    O5'    547    -0.4989         16
   548         CT     18      A    C5'    548     0.0558      12.01
   549         H1     18      A   H5'1    549     0.0679      1.008
   550         H1     18      A   H5'2    550     0.0679      1.008
   551         CT     18      A    C4'    551     0.1065      12.01
   552         H1     18      A    H4'    552     0.1174      1.008
   553         OS     18      A    O4'    553    -0.3548         16
   554         CT     18      A    C1'    554     0.0394      12.01
   555         H2     18      A    H1'    555     0.2007      1.008
   556         N*     18      A     N9    556    -0.0251      14.01
   557         CK     18      A     C8    557     0.2006      12.01
   558         H5     18      A     H8    558     0.1553      1.008
   559         NB     18      A     N7    559    -0.6073      14.01
   560         CB     18      A     C5    560     0.0515      12.01
   561         CA     18      A     C6    561     0.7009      12.01
   562         N2     18      A     N6    562    -0.9019      14.01
   563          H     18      A    H61    563     0.4115      1.008
   564          H     18      A    H62    564     0.4115      1.008
   565         NC     18      A     N1    565    -0.7615      14.01
   566         CQ     18      A     C2    566     0.5875      12.01
   567         H5     18      A     H2    567     0.0473      1.008
   568         NC     18      A     N3    568    -0.6997      14.01
   569         CB     18      A     C4    569     0.3053      12.01
   570         CT     18      A    C3'    570     0.2022      12.01
   571         H1     18      A    H3'    571     0.0615      1.008
   572         CT     18      A    C2'    572      0.067      12.01
   573         H1     18      A   H2'1    573     0.0972      1.008
   574         OH     18      A    O2'    574    -0.6139         16
   575         HO     18      A   HO'2    575     0.4186      1.008
   576         OS     18      A    O3'    576    -0.5246         16   ; qtot -17.31
; residue  19 G   rtp RG   q -1.0
   577          P     19      G      P    577     1.1662      30.97
   578         O2     19      G    O1P    578     -0.776         16
   579         O2     19      G    O2P    579     -0.776         16
   580         OS     19      G    O5'    580    -0.4989         16
   581         CT     19      G    C5'    581     0.0558      12.01
   582         H1     19      G   H5'1    582     0.0679      1.008
   583         H1     19      G   H5'2    583     0.0679      1.008
   584         CT     19      G    C4'    584     0.1065      12.01
   585         H1     19      G    H4'    585     0.1174      1.008
   586         OS     19      G    O4'    586    -0.3548         16
   587         CT     19      G    C1'    587     0.0191      12.01
   588         H2     19      G    H1'    588     0.2006      1.008
   589         N*     19      G     N9    589     0.0492      14.01
   590         CK     19      G     C8    590     0.1374      12.01
   591         H5     19      G     H8    591      0.164      1.008
   592         NB     19      G     N7    592    -0.5709      14.01
   593         CB     19      G     C5    593     0.1744      12.01
   594          C     19      G     C6    594      0.477      12.01
   595          O     19      G     O6    595    -0.5597         16
   596         NA     19      G     N1    596    -0.4787      14.01
   597          H     19      G     H1    597     0.3424      1.008
   598         CA     19      G     C2    598     0.7657      12.01
   599         N2     19      G     N2    599    -0.9672      14.01
   600          H     19      G    H21    600     0.4364      1.008
   601          H     19      G    H22    601     0.4364      1.008
   602         NC     19      G     N3    602    -0.6323      14.01
   603         CB     19      G     C4    603     0.1222      12.01
   604         CT     19      G    C3'    604     0.2022      12.01
   605         H1     19      G    H3'    605     0.0615      1.008
   606         CT     19      G    C2'    606      0.067      12.01
   607         H1     19      G   H2'1    607     0.0972      1.008
   608         OH     19      G    O2'    608    -0.6139         16
   609         HO     19      G   HO'2    609     0.4186      1.008
   610         OS     19      G    O3'    610    -0.5246         16   ; qtot -18.31
; residue  20 A   rtp RA   q -1.0
   611          P     20      A      P    611     1.1662      30.97
   612         O2     20      A    O1P    612     -0.776         16
   613         O2     20      A    O2P    613     -0.776         16
   614         OS     20      A    O5'    614    -0.4989         16
   615         CT     20      A    C5'    615     0.0558      12.01
   616         H1     20      A   H5'1    616     0.0679      1.008
   617         H1     20      A   H5'2    617     0.0679      1.008
   618         CT     20      A    C4'    618     0.1065      12.01
   619         H1     20      A    H4'    619     0.1174      1.008
   620         OS     20      A    O4'    620    -0.3548         16
   621         CT     20      A    C1'    621     0.0394      12.01
   622         H2     20      A    H1'    622     0.2007      1.008
   623         N*     20      A     N9    623    -0.0251      14.01
   624         CK     20      A     C8    624     0.2006      12.01
   625         H5     20      A     H8    625     0.1553      1.008
   626         NB     20      A     N7    626    -0.6073      14.01
   627         CB     20      A     C5    627     0.0515      12.01
   628         CA     20      A     C6    628     0.7009      12.01
   629         N2     20      A     N6    629    -0.9019      14.01
   630          H     20      A    H61    630     0.4115      1.008
   631          H     20      A    H62    631     0.4115      1.008
   632         NC     20      A     N1    632    -0.7615      14.01
   633         CQ     20      A     C2    633     0.5875      12.01
   634         H5     20      A     H2    634     0.0473      1.008
   635         NC     20      A     N3    635    -0.6997      14.01
   636         CB     20      A     C4    636     0.3053      12.01
   637         CT     20      A    C3'    637     0.2022      12.01
   638         H1     20      A    H3'    638     0.0615      1.008
   639         CT     20      A    C2'    639      0.067      12.01
   640         H1     20      A   H2'1    640     0.0972      1.008
   641         OH     20      A    O2'    641    -0.6139         16
   642         HO     20      A   HO'2    642     0.4186      1.008
   643         OS     20      A    O3'    643    -0.5246         16   ; qtot -19.31
; residue  21 U   rtp RU3  q -0.7
   644          P     21      U      P    644     1.1662      30.97
   645         O2     21      U    O1P    645     -0.776         16
   646         O2     21      U    O2P    646     -0.776         16
   647         OS     21      U    O5'    647    -0.4989         16
   648         CT     21      U    C5'    648     0.0558      12.01
   649         H1     21      U   H5'1    649     0.0679      1.008
   650         H1     21      U   H5'2    650     0.0679      1.008
   651         CT     21      U    C4'    651     0.1065      12.01
   652         H1     21      U    H4'    652     0.1174      1.008
   653         OS     21      U    O4'    653    -0.3548         16
   654         CT     21      U    C1'    654     0.0674      12.01
   655         H2     21      U    H1'    655     0.1824      1.008
   656         N*     21      U     N1    656     0.0418      14.01
   657         CM     21      U     C6    657    -0.1126      12.01
   658         H4     21      U     H6    658     0.2188      1.008
   659         CM     21      U     C5    659    -0.3635      12.01
   660         HA     21      U     H5    660     0.1811      1.008
   661          C     21      U     C4    661     0.5952      12.01
   662          O     21      U     O4    662    -0.5761         16
   663         NA     21      U     N3    663    -0.3549      14.01
   664          H     21      U     H3    664     0.3154      1.008
   665          C     21      U     C2    665     0.4687      12.01
   666          O     21      U     O2    666    -0.5477         16
   667         CT     21      U    C3'    667     0.2022      12.01
   668         H1     21      U    H3'    668     0.0615      1.008
   669         CT     21      U    C2'    669      0.067      12.01
   670         H1     21      U   H2'1    670     0.0972      1.008
   671         OH     21      U    O2'    671    -0.6139         16
   672         HO     21      U   HO'2    672     0.4186      1.008
   673         OH     21      U    O3'    673    -0.6541         16
   674         HO     21      U    H3T    674     0.4376      1.008   ; qtot -20

[ bonds ]
;  ai    aj funct            c0            c1            c2            c3
    1     2     1 
    1     3     1 
    3     4     1 
    3     5     1 
    3     6     1 
    6     7     1 
    6     8     1 
    6    25     1 
    8     9     1 
    9    10     1 
    9    11     1 
    9    27     1 
   11    12     1 
   11    24     1 
   12    13     1 
   12    14     1 
   14    15     1 
   15    16     1 
   15    24     1 
   16    17     1 
   16    20     1 
   17    18     1 
   17    19     1 
   20    21     1 
   21    22     1 
   21    23     1 
   23    24     1 
   25    26     1 
   25    27     1 
   25    31     1 
   27    28     1 
   27    29     1 
   29    30     1 
   31    32     1 
   32    33     1 
   32    34     1 
   32    35     1 
   35    36     1 
   36    37     1 
   36    38     1 
   36    39     1 
   39    40     1 
   39    41     1 
   39    55     1 
   41    42     1 
   42    43     1 
   42    44     1 
   42    57     1 
   44    45     1 
   44    53     1 
   45    46     1 
   45    47     1 
   47    48     1 
   47    49     1 
   49    50     1 
   49    51     1 
   51    52     1 
   51    53     1 
   53    54     1 
   55    56     1 
   55    57     1 
   55    61     1 
   57    58     1 
   57    59     1 
   59    60     1 
   61    62     1 
   62    63     1 
   62    64     1 
   62    65     1 
   65    66     1 
   66    67     1 
   66    68     1 
   66    69     1 
   69    70     1 
   69    71     1 
   69    88     1 
   71    72     1 
   72    73     1 
   72    74     1 
   72    90     1 
   74    75     1 
   74    87     1 
   75    76     1 
   75    77     1 
   77    78     1 
   78    79     1 
   78    87     1 
   79    80     1 
   79    83     1 
   80    81     1 
   80    82     1 
   83    84     1 
   84    85     1 
   84    86     1 
   86    87     1 
   88    89     1 
   88    90     1 
   88    94     1 
   90    91     1 
   90    92     1 
   92    93     1 
   94    95     1 
   95    96     1 
   95    97     1 
   95    98     1 
   98    99     1 
   99   100     1 
   99   101     1 
   99   102     1 
  102   103     1 
  102   104     1 
  102   122     1 
  104   105     1 
  105   106     1 
  105   107     1 
  105   124     1 
  107   108     1 
  107   121     1 
  108   109     1 
  108   110     1 
  110   111     1 
  111   112     1 
  111   121     1 
  112   113     1 
  112   114     1 
  114   115     1 
  114   116     1 
  116   117     1 
  116   120     1 
  117   118     1 
  117   119     1 
  120   121     1 
  122   123     1 
  122   124     1 
  122   128     1 
  124   125     1 
  124   126     1 
  126   127     1 
  128   129     1 
  129   130     1 
  129   131     1 
  129   132     1 
  132   133     1 
  133   134     1 
  133   135     1 
  133   136     1 
  136   137     1 
  136   138     1 
  136   156     1 
  138   139     1 
  139   140     1 
  139   141     1 
  139   158     1 
  141   142     1 
  141   155     1 
  142   143     1 
  142   144     1 
  144   145     1 
  145   146     1 
  145   155     1 
  146   147     1 
  146   148     1 
  148   149     1 
  148   150     1 
  150   151     1 
  150   154     1 
  151   152     1 
  151   153     1 
  154   155     1 
  156   157     1 
  156   158     1 
  156   162     1 
  158   159     1 
  158   160     1 
  160   161     1 
  162   163     1 
  163   164     1 
  163   165     1 
  163   166     1 
  166   167     1 
  167   168     1 
  167   169     1 
  167   170     1 
  170   171     1 
  170   172     1 
  170   189     1 
  172   173     1 
  173   174     1 
  173   175     1 
  173   191     1 
  175   176     1 
  175   188     1 
  176   177     1 
  176   178     1 
  178   179     1 
  179   180     1 
  179   188     1 
  180   181     1 
  180   184     1 
  181   182     1 
  181   183     1 
  184   185     1 
  185   186     1 
  185   187     1 
  187   188     1 
  189   190     1 
  189   191     1 
  189   195     1 
  191   192     1 
  191   193     1 
  193   194     1 
  195   196     1 
  196   197     1 
  196   198     1 
  196   199     1 
  199   200     1 
  200   201     1 
  200   202     1 
  200   203     1 
  203   204     1 
  203   205     1 
  203   219     1 
  205   206     1 
  206   207     1 
  206   208     1 
  206   221     1 
  208   209     1 
  208   217     1 
  209   210     1 
  209   211     1 
  211   212     1 
  211   213     1 
  213   214     1 
  213   215     1 
  215   216     1 
  215   217     1 
  217   218     1 
  219   220     1 
  219   221     1 
  219   225     1 
  221   222     1 
  221   223     1 
  223   224     1 
  225   226     1 
  226   227     1 
  226   228     1 
  226   229     1 
  229   230     1 
  230   231     1 
  230   232     1 
  230   233     1 
  233   234     1 
  233   235     1 
  233   249     1 
  235   236     1 
  236   237     1 
  236   238     1 
  236   251     1 
  238   239     1 
  238   247     1 
  239   240     1 
  239   241     1 
  241   242     1 
  241   243     1 
  243   244     1 
  243   245     1 
  245   246     1 
  245   247     1 
  247   248     1 
  249   250     1 
  249   251     1 
  249   255     1 
  251   252     1 
  251   253     1 
  253   254     1 
  255   256     1 
  256   257     1 
  256   258     1 
  256   259     1 
  259   260     1 
  260   261     1 
  260   262     1 
  260   263     1 
  263   264     1 
  263   265     1 
  263   280     1 
  265   266     1 
  266   267     1 
  266   268     1 
  266   282     1 
  268   269     1 
  268   278     1 
  269   270     1 
  269   271     1 
  271   272     1 
  271   273     1 
  273   274     1 
  273   277     1 
  274   275     1 
  274   276     1 
  277   278     1 
  278   279     1 
  280   281     1 
  280   282     1 
  280   286     1 
  282   283     1 
  282   284     1 
  284   285     1 
  286   287     1 
  287   288     1 
  287   289     1 
  287   290     1 
  290   291     1 
  291   292     1 
  291   293     1 
  291   294     1 
  294   295     1 
  294   296     1 
  294   313     1 
  296   297     1 
  297   298     1 
  297   299     1 
  297   315     1 
  299   300     1 
  299   312     1 
  300   301     1 
  300   302     1 
  302   303     1 
  303   304     1 
  303   312     1 
  304   305     1 
  304   308     1 
  305   306     1 
  305   307     1 
  308   309     1 
  309   310     1 
  309   311     1 
  311   312     1 
  313   314     1 
  313   315     1 
  313   319     1 
  315   316     1 
  315   317     1 
  317   318     1 
  319   320     1 
  320   321     1 
  320   322     1 
  320   323     1 
  323   324     1 
  324   325     1 
  324   326     1 
  324   327     1 
  327   328     1 
  327   329     1 
  327   343     1 
  329   330     1 
  330   331     1 
  330   332     1 
  330   345     1 
  332   333     1 
  332   341     1 
  333   334     1 
  333   335     1 
  335   336     1 
  335   337     1 
  337   338     1 
  337   339     1 
  339   340     1 
  339   341     1 
  341   342     1 
  343   344     1 
  343   345     1 
  343   349     1 
  345   346     1 
  345   347     1 
  347   348     1 
  349   350     1 
  350   351     1 
  350   352     1 
  350   353     1 
  353   354     1 
  354   355     1 
  354   356     1 
  354   357     1 
  357   358     1 
  357   359     1 
  357   376     1 
  359   360     1 
  360   361     1 
  360   362     1 
  360   378     1 
  362   363     1 
  362   375     1 
  363   364     1 
  363   365     1 
  365   366     1 
  366   367     1 
  366   375     1 
  367   368     1 
  367   371     1 
  368   369     1 
  368   370     1 
  371   372     1 
  372   373     1 
  372   374     1 
  374   375     1 
  376   377     1 
  376   378     1 
  376   382     1 
  378   379     1 
  378   380     1 
  380   381     1 
  382   383     1 
  383   384     1 
  383   385     1 
  383   386     1 
  386   387     1 
  387   388     1 
  387   389     1 
  387   390     1 
  390   391     1 
  390   392     1 
  390   406     1 
  392   393     1 
  393   394     1 
  393   395     1 
  393   408     1 
  395   396     1 
  395   404     1 
  396   397     1 
  396   398     1 
  398   399     1 
  398   400     1 
  400   401     1 
  400   402     1 
  402   403     1 
  402   404     1 
  404   405     1 
  406   407     1 
  406   408     1 
  406   412     1 
  408   409     1 
  408   410     1 
  410   411     1 
  412   413     1 
  413   414     1 
  413   415     1 
  413   416     1 
  416   417     1 
  417   418     1 
  417   419     1 
  417   420     1 
  420   421     1 
  420   422     1 
  420   436     1 
  422   423     1 
  423   424     1 
  423   425     1 
  423   438     1 
  425   426     1 
  425   434     1 
  426   427     1 
  426   428     1 
  428   429     1 
  428   430     1 
  430   431     1 
  430   432     1 
  432   433     1 
  432   434     1 
  434   435     1 
  436   437     1 
  436   438     1 
  436   442     1 
  438   439     1 
  438   440     1 
  440   441     1 
  442   443     1 
  443   444     1 
  443   445     1 
  443   446     1 
  446   447     1 
  447   448     1 
  447   449     1 
  447   450     1 
  450   451     1 
  450   452     1 
  450   469     1 
  452   453     1 
  453   454     1 
  453   455     1 
  453   471     1 
  455   456     1 
  455   468     1 
  456   457     1 
  456   458     1 
  458   459     1 
  459   460     1 
  459   468     1 
  460   461     1 
  460   464     1 
  461   462     1 
  461   463     1 
  464   465     1 
  465   466     1 
  465   467     1 
  467   468     1 
  469   470     1 
  469   471     1 
  469   475     1 
  471   472     1 
  471   473     1 
  473   474     1 
  475   476     1 
  476   477     1 
  476   478     1 
  476   479     1 
  479   480     1 
  480   481     1 
  480   482     1 
  480   483     1 
  483   484     1 
  483   485     1 
  483   503     1 
  485   486     1 
  486   487     1 
  486   488     1 
  486   505     1 
  488   489     1 
  488   502     1 
  489   490     1 
  489   491     1 
  491   492     1 
  492   493     1 
  492   502     1 
  493   494     1 
  493   495     1 
  495   496     1 
  495   497     1 
  497   498     1 
  497   501     1 
  498   499     1 
  498   500     1 
  501   502     1 
  503   504     1 
  503   505     1 
  503   509     1 
  505   506     1 
  505   507     1 
  507   508     1 
  509   510     1 
  510   511     1 
  510   512     1 
  510   513     1 
  513   514     1 
  514   515     1 
  514   516     1 
  514   517     1 
  517   518     1 
  517   519     1 
  517   537     1 
  519   520     1 
  520   521     1 
  520   522     1 
  520   539     1 
  522   523     1 
  522   536     1 
  523   524     1 
  523   525     1 
  525   526     1 
  526   527     1 
  526   536     1 
  527   528     1 
  527   529     1 
  529   530     1 
  529   531     1 
  531   532     1 
  531   535     1 
  532   533     1 
  532   534     1 
  535   536     1 
  537   538     1 
  537   539     1 
  537   543     1 
  539   540     1 
  539   541     1 
  541   542     1 
  543   544     1 
  544   545     1 
  544   546     1 
  544   547     1 
  547   548     1 
  548   549     1 
  548   550     1 
  548   551     1 
  551   552     1 
  551   553     1 
  551   570     1 
  553   554     1 
  554   555     1 
  554   556     1 
  554   572     1 
  556   557     1 
  556   569     1 
  557   558     1 
  557   559     1 
  559   560     1 
  560   561     1 
  560   569     1 
  561   562     1 
  561   565     1 
  562   563     1 
  562   564     1 
  565   566     1 
  566   567     1 
  566   568     1 
  568   569     1 
  570   571     1 
  570   572     1 
  570   576     1 
  572   573     1 
  572   574     1 
  574   575     1 
  576   577     1 
  577   578     1 
  577   579     1 
  577   580     1 
  580   581     1 
  581   582     1 
  581   583     1 
  581   584     1 
  584   585     1 
  584   586     1 
  584   604     1 
  586   587     1 
  587   588     1 
  587   589     1 
  587   606     1 
  589   590     1 
  589   603     1 
  590   591     1 
  590   592     1 
  592   593     1 
  593   594     1 
  593   603     1 
  594   595     1 
  594   596     1 
  596   597     1 
  596   598     1 
  598   599     1 
  598   602     1 
  599   600     1 
  599   601     1 
  602   603     1 
  604   605     1 
  604   606     1 
  604   610     1 
  606   607     1 
  606   608     1 
  608   609     1 
  610   611     1 
  611   612     1 
  611   613     1 
  611   614     1 
  614   615     1 
  615   616     1 
  615   617     1 
  615   618     1 
  618   619     1 
  618   620     1 
  618   637     1 
  620   621     1 
  621   622     1 
  621   623     1 
  621   639     1 
  623   624     1 
  623   636     1 
  624   625     1 
  624   626     1 
  626   627     1 
  627   628     1 
  627   636     1 
  628   629     1 
  628   632     1 
  629   630     1 
  629   631     1 
  632   633     1 
  633   634     1 
  633   635     1 
  635   636     1 
  637   638     1 
  637   639     1 
  637   643     1 
  639   640     1 
  639   641     1 
  641   642     1 
  643   644     1 
  644   645     1 
  644   646     1 
  644   647     1 
  647   648     1 
  648   649     1 
  648   650     1 
  648   651     1 
  651   652     1 
  651   653     1 
  651   667     1 
  653   654     1 
  654   655     1 
  654   656     1 
  654   669     1 
  656   657     1 
  656   665     1 
  657   658     1 
  657   659     1 
  659   660     1 
  659   661     1 
  661   662     1 
  661   663     1 
  663   664     1 
  663   665     1 
  665   666     1 
  667   668     1 
  667   669     1 
  667   673     1 
  669   670     1 
  669   671     1 
  671   672     1 
  673   674     1 

[ pairs ]
;  ai    aj funct            c0            c1            c2            c3
    1     7     1 
    1     8     1 
    1    25     1 
    2     4     1 
    2     5     1 
    2     6     1 
    3     9     1 
    3    26     1 
    3    27     1 
    3    31     1 
    4     7     1 
    4     8     1 
    4    25     1 
    5     7     1 
    5     8     1 
    5    25     1 
    6    10     1 
    6    11     1 
    6    28     1 
    6    29     1 
    6    32     1 
    7     9     1 
    7    26     1 
    7    27     1 
    7    31     1 
    8    12     1 
    8    24     1 
    8    26     1 
    8    28     1 
    8    29     1 
    8    31     1 
    9    13     1 
    9    14     1 
    9    15     1 
    9    23     1 
    9    26     1 
    9    30     1 
    9    31     1 
   10    12     1 
   10    24     1 
   10    25     1 
   10    28     1 
   10    29     1 
   11    16     1 
   11    21     1 
   11    25     1 
   11    28     1 
   11    29     1 
   12    16     1 
   12    23     1 
   12    27     1 
   13    15     1 
   13    24     1 
   14    17     1 
   14    20     1 
   14    23     1 
   15    18     1 
   15    19     1 
   15    21     1 
   16    22     1 
   16    23     1 
   17    21     1 
   17    24     1 
   18    20     1 
   19    20     1 
   20    24     1 
   22    24     1 
   24    27     1 
   25    30     1 
   25    33     1 
   25    34     1 
   25    35     1 
   26    28     1 
   26    29     1 
   26    32     1 
   27    32     1 
   28    30     1 
   28    31     1 
   29    31     1 
   31    36     1 
   32    37     1 
   32    38     1 
   32    39     1 
   33    36     1 
   34    36     1 
   35    40     1 
   35    41     1 
   35    55     1 
   36    42     1 
   36    56     1 
   36    57     1 
   36    61     1 
   37    40     1 
   37    41     1 
   37    55     1 
   38    40     1 
   38    41     1 
   38    55     1 
   39    43     1 
   39    44     1 
   39    58     1 
   39    59     1 
   39    62     1 
   40    42     1 
   40    56     1 
   40    57     1 
   40    61     1 
   41    45     1 
   41    53     1 
   41    56     1 
   41    58     1 
   41    59     1 
   41    61     1 
   42    46     1 
   42    47     1 
   42    51     1 
   42    54     1 
   42    56     1 
   42    60     1 
   42    61     1 
   43    45     1 
   43    53     1 
   43    55     1 
   43    58     1 
   43    59     1 
   44    48     1 
   44    49     1 
   44    52     1 
   44    55     1 
   44    58     1 
   44    59     1 
   45    50     1 
   45    51     1 
   45    54     1 
   45    57     1 
   46    48     1 
   46    49     1 
   46    53     1 
   47    52     1 
   47    53     1 
   48    50     1 
   48    51     1 
   49    54     1 
   50    52     1 
   50    53     1 
   52    54     1 
   53    57     1 
   55    60     1 
   55    63     1 
   55    64     1 
   55    65     1 
   56    58     1 
   56    59     1 
   56    62     1 
   57    62     1 
   58    60     1 
   58    61     1 
   59    61     1 
   61    66     1 
   62    67     1 
   62    68     1 
   62    69     1 
   63    66     1 
   64    66     1 
   65    70     1 
   65    71     1 
   65    88     1 
   66    72     1 
   66    89     1 
   66    90     1 
   66    94     1 
   67    70     1 
   67    71     1 
   67    88     1 
   68    70     1 
   68    71     1 
   68    88     1 
   69    73     1 
   69    74     1 
   69    91     1 
   69    92     1 
   69    95     1 
   70    72     1 
   70    89     1 
   70    90     1 
   70    94     1 
   71    75     1 
   71    87     1 
   71    89     1 
   71    91     1 
   71    92     1 
   71    94     1 
   72    76     1 
   72    77     1 
   72    78     1 
   72    86     1 
   72    89     1 
   72    93     1 
   72    94     1 
   73    75     1 
   73    87     1 
   73    88     1 
   73    91     1 
   73    92     1 
   74    79     1 
   74    84     1 
   74    88     1 
   74    91     1 
   74    92     1 
   75    79     1 
   75    86     1 
   75    90     1 
   76    78     1 
   76    87     1 
   77    80     1 
   77    83     1 
   77    86     1 
   78    81     1 
   78    82     1 
   78    84     1 
   79    85     1 
   79    86     1 
   80    84     1 
   80    87     1 
   81    83     1 
   82    83     1 
   83    87     1 
   85    87     1 
   87    90     1 
   88    93     1 
   88    96     1 
   88    97     1 
   88    98     1 
   89    91     1 
   89    92     1 
   89    95     1 
   90    95     1 
   91    93     1 
   91    94     1 
   92    94     1 
   94    99     1 
   95   100     1 
   95   101     1 
   95   102     1 
   96    99     1 
   97    99     1 
   98   103     1 
   98   104     1 
   98   122     1 
   99   105     1 
   99   123     1 
   99   124     1 
   99   128     1 
  100   103     1 
  100   104     1 
  100   122     1 
  101   103     1 
  101   104     1 
  101   122     1 
  102   106     1 
  102   107     1 
  102   125     1 
  102   126     1 
  102   129     1 
  103   105     1 
  103   123     1 
  103   124     1 
  103   128     1 
  104   108     1 
  104   121     1 
  104   123     1 
  104   125     1 
  104   126     1 
  104   128     1 
  105   109     1 
  105   110     1 
  105   111     1 
  105   120     1 
  105   123     1 
  105   127     1 
  105   128     1 
  106   108     1 
  106   121     1 
  106   122     1 
  106   125     1 
  106   126     1 
  107   112     1 
  107   116     1 
  107   122     1 
  107   125     1 
  107   126     1 
  108   112     1 
  108   120     1 
  108   124     1 
  109   111     1 
  109   121     1 
  110   113     1 
  110   114     1 
  110   120     1 
  111   115     1 
  111   116     1 
  112   117     1 
  112   120     1 
  113   115     1 
  113   116     1 
  113   121     1 
  114   118     1 
  114   119     1 
  114   121     1 
  115   117     1 
  115   120     1 
  117   121     1 
  118   120     1 
  119   120     1 
  121   124     1 
  122   127     1 
  122   130     1 
  122   131     1 
  122   132     1 
  123   125     1 
  123   126     1 
  123   129     1 
  124   129     1 
  125   127     1 
  125   128     1 
  126   128     1 
  128   133     1 
  129   134     1 
  129   135     1 
  129   136     1 
  130   133     1 
  131   133     1 
  132   137     1 
  132   138     1 
  132   156     1 
  133   139     1 
  133   157     1 
  133   158     1 
  133   162     1 
  134   137     1 
  134   138     1 
  134   156     1 
  135   137     1 
  135   138     1 
  135   156     1 
  136   140     1 
  136   141     1 
  136   159     1 
  136   160     1 
  136   163     1 
  137   139     1 
  137   157     1 
  137   158     1 
  137   162     1 
  138   142     1 
  138   155     1 
  138   157     1 
  138   159     1 
  138   160     1 
  138   162     1 
  139   143     1 
  139   144     1 
  139   145     1 
  139   154     1 
  139   157     1 
  139   161     1 
  139   162     1 
  140   142     1 
  140   155     1 
  140   156     1 
  140   159     1 
  140   160     1 
  141   146     1 
  141   150     1 
  141   156     1 
  141   159     1 
  141   160     1 
  142   146     1 
  142   154     1 
  142   158     1 
  143   145     1 
  143   155     1 
  144   147     1 
  144   148     1 
  144   154     1 
  145   149     1 
  145   150     1 
  146   151     1 
  146   154     1 
  147   149     1 
  147   150     1 
  147   155     1 
  148   152     1 
  148   153     1 
  148   155     1 
  149   151     1 
  149   154     1 
  151   155     1 
  152   154     1 
  153   154     1 
  155   158     1 
  156   161     1 
  156   164     1 
  156   165     1 
  156   166     1 
  157   159     1 
  157   160     1 
  157   163     1 
  158   163     1 
  159   161     1 
  159   162     1 
  160   162     1 
  162   167     1 
  163   168     1 
  163   169     1 
  163   170     1 
  164   167     1 
  165   167     1 
  166   171     1 
  166   172     1 
  166   189     1 
  167   173     1 
  167   190     1 
  167   191     1 
  167   195     1 
  168   171     1 
  168   172     1 
  168   189     1 
  169   171     1 
  169   172     1 
  169   189     1 
  170   174     1 
  170   175     1 
  170   192     1 
  170   193     1 
  170   196     1 
  171   173     1 
  171   190     1 
  171   191     1 
  171   195     1 
  172   176     1 
  172   188     1 
  172   190     1 
  172   192     1 
  172   193     1 
  172   195     1 
  173   177     1 
  173   178     1 
  173   179     1 
  173   187     1 
  173   190     1 
  173   194     1 
  173   195     1 
  174   176     1 
  174   188     1 
  174   189     1 
  174   192     1 
  174   193     1 
  175   180     1 
  175   185     1 
  175   189     1 
  175   192     1 
  175   193     1 
  176   180     1 
  176   187     1 
  176   191     1 
  177   179     1 
  177   188     1 
  178   181     1 
  178   184     1 
  178   187     1 
  179   182     1 
  179   183     1 
  179   185     1 
  180   186     1 
  180   187     1 
  181   185     1 
  181   188     1 
  182   184     1 
  183   184     1 
  184   188     1 
  186   188     1 
  188   191     1 
  189   194     1 
  189   197     1 
  189   198     1 
  189   199     1 
  190   192     1 
  190   193     1 
  190   196     1 
  191   196     1 
  192   194     1 
  192   195     1 
  193   195     1 
  195   200     1 
  196   201     1 
  196   202     1 
  196   203     1 
  197   200     1 
  198   200     1 
  199   204     1 
  199   205     1 
  199   219     1 
  200   206     1 
  200   220     1 
  200   221     1 
  200   225     1 
  201   204     1 
  201   205     1 
  201   219     1 
  202   204     1 
  202   205     1 
  202   219     1 
  203   207     1 
  203   208     1 
  203   222     1 
  203   223     1 
  203   226     1 
  204   206     1 
  204   220     1 
  204   221     1 
  204   225     1 
  205   209     1 
  205   217     1 
  205   220     1 
  205   222     1 
  205   223     1 
  205   225     1 
  206   210     1 
  206   211     1 
  206   215     1 
  206   218     1 
  206   220     1 
  206   224     1 
  206   225     1 
  207   209     1 
  207   217     1 
  207   219     1 
  207   222     1 
  207   223     1 
  208   212     1 
  208   213     1 
  208   216     1 
  208   219     1 
  208   222     1 
  208   223     1 
  209   214     1 
  209   215     1 
  209   218     1 
  209   221     1 
  210   212     1 
  210   213     1 
  210   217     1 
  211   216     1 
  211   217     1 
  212   214     1 
  212   215     1 
  213   218     1 
  214   216     1 
  214   217     1 
  216   218     1 
  217   221     1 
  219   224     1 
  219   227     1 
  219   228     1 
  219   229     1 
  220   222     1 
  220   223     1 
  220   226     1 
  221   226     1 
  222   224     1 
  222   225     1 
  223   225     1 
  225   230     1 
  226   231     1 
  226   232     1 
  226   233     1 
  227   230     1 
  228   230     1 
  229   234     1 
  229   235     1 
  229   249     1 
  230   236     1 
  230   250     1 
  230   251     1 
  230   255     1 
  231   234     1 
  231   235     1 
  231   249     1 
  232   234     1 
  232   235     1 
  232   249     1 
  233   237     1 
  233   238     1 
  233   252     1 
  233   253     1 
  233   256     1 
  234   236     1 
  234   250     1 
  234   251     1 
  234   255     1 
  235   239     1 
  235   247     1 
  235   250     1 
  235   252     1 
  235   253     1 
  235   255     1 
  236   240     1 
  236   241     1 
  236   245     1 
  236   248     1 
  236   250     1 
  236   254     1 
  236   255     1 
  237   239     1 
  237   247     1 
  237   249     1 
  237   252     1 
  237   253     1 
  238   242     1 
  238   243     1 
  238   246     1 
  238   249     1 
  238   252     1 
  238   253     1 
  239   244     1 
  239   245     1 
  239   248     1 
  239   251     1 
  240   242     1 
  240   243     1 
  240   247     1 
  241   246     1 
  241   247     1 
  242   244     1 
  242   245     1 
  243   248     1 
  244   246     1 
  244   247     1 
  246   248     1 
  247   251     1 
  249   254     1 
  249   257     1 
  249   258     1 
  249   259     1 
  250   252     1 
  250   253     1 
  250   256     1 
  251   256     1 
  252   254     1 
  252   255     1 
  253   255     1 
  255   260     1 
  256   261     1 
  256   262     1 
  256   263     1 
  257   260     1 
  258   260     1 
  259   264     1 
  259   265     1 
  259   280     1 
  260   266     1 
  260   281     1 
  260   282     1 
  260   286     1 
  261   264     1 
  261   265     1 
  261   280     1 
  262   264     1 
  262   265     1 
  262   280     1 
  263   267     1 
  263   268     1 
  263   283     1 
  263   284     1 
  263   287     1 
  264   266     1 
  264   281     1 
  264   282     1 
  264   286     1 
  265   269     1 
  265   278     1 
  265   281     1 
  265   283     1 
  265   284     1 
  265   286     1 
  266   270     1 
  266   271     1 
  266   277     1 
  266   279     1 
  266   281     1 
  266   285     1 
  266   286     1 
  267   269     1 
  267   278     1 
  267   280     1 
  267   283     1 
  267   284     1 
  268   272     1 
  268   273     1 
  268   280     1 
  268   283     1 
  268   284     1 
  269   274     1 
  269   277     1 
  269   279     1 
  269   282     1 
  270   272     1 
  270   273     1 
  270   278     1 
  271   275     1 
  271   276     1 
  271   278     1 
  272   274     1 
  272   277     1 
  273   279     1 
  274   278     1 
  275   277     1 
  276   277     1 
  278   282     1 
  280   285     1 
  280   288     1 
  280   289     1 
  280   290     1 
  281   283     1 
  281   284     1 
  281   287     1 
  282   287     1 
  283   285     1 
  283   286     1 
  284   286     1 
  286   291     1 
  287   292     1 
  287   293     1 
  287   294     1 
  288   291     1 
  289   291     1 
  290   295     1 
  290   296     1 
  290   313     1 
  291   297     1 
  291   314     1 
  291   315     1 
  291   319     1 
  292   295     1 
  292   296     1 
  292   313     1 
  293   295     1 
  293   296     1 
  293   313     1 
  294   298     1 
  294   299     1 
  294   316     1 
  294   317     1 
  294   320     1 
  295   297     1 
  295   314     1 
  295   315     1 
  295   319     1 
  296   300     1 
  296   312     1 
  296   314     1 
  296   316     1 
  296   317     1 
  296   319     1 
  297   301     1 
  297   302     1 
  297   303     1 
  297   311     1 
  297   314     1 
  297   318     1 
  297   319     1 
  298   300     1 
  298   312     1 
  298   313     1 
  298   316     1 
  298   317     1 
  299   304     1 
  299   309     1 
  299   313     1 
  299   316     1 
  299   317     1 
  300   304     1 
  300   311     1 
  300   315     1 
  301   303     1 
  301   312     1 
  302   305     1 
  302   308     1 
  302   311     1 
  303   306     1 
  303   307     1 
  303   309     1 
  304   310     1 
  304   311     1 
  305   309     1 
  305   312     1 
  306   308     1 
  307   308     1 
  308   312     1 
  310   312     1 
  312   315     1 
  313   318     1 
  313   321     1 
  313   322     1 
  313   323     1 
  314   316     1 
  314   317     1 
  314   320     1 
  315   320     1 
  316   318     1 
  316   319     1 
  317   319     1 
  319   324     1 
  320   325     1 
  320   326     1 
  320   327     1 
  321   324     1 
  322   324     1 
  323   328     1 
  323   329     1 
  323   343     1 
  324   330     1 
  324   344     1 
  324   345     1 
  324   349     1 
  325   328     1 
  325   329     1 
  325   343     1 
  326   328     1 
  326   329     1 
  326   343     1 
  327   331     1 
  327   332     1 
  327   346     1 
  327   347     1 
  327   350     1 
  328   330     1 
  328   344     1 
  328   345     1 
  328   349     1 
  329   333     1 
  329   341     1 
  329   344     1 
  329   346     1 
  329   347     1 
  329   349     1 
  330   334     1 
  330   335     1 
  330   339     1 
  330   342     1 
  330   344     1 
  330   348     1 
  330   349     1 
  331   333     1 
  331   341     1 
  331   343     1 
  331   346     1 
  331   347     1 
  332   336     1 
  332   337     1 
  332   340     1 
  332   343     1 
  332   346     1 
  332   347     1 
  333   338     1 
  333   339     1 
  333   342     1 
  333   345     1 
  334   336     1 
  334   337     1 
  334   341     1 
  335   340     1 
  335   341     1 
  336   338     1 
  336   339     1 
  337   342     1 
  338   340     1 
  338   341     1 
  340   342     1 
  341   345     1 
  343   348     1 
  343   351     1 
  343   352     1 
  343   353     1 
  344   346     1 
  344   347     1 
  344   350     1 
  345   350     1 
  346   348     1 
  346   349     1 
  347   349     1 
  349   354     1 
  350   355     1 
  350   356     1 
  350   357     1 
  351   354     1 
  352   354     1 
  353   358     1 
  353   359     1 
  353   376     1 
  354   360     1 
  354   377     1 
  354   378     1 
  354   382     1 
  355   358     1 
  355   359     1 
  355   376     1 
  356   358     1 
  356   359     1 
  356   376     1 
  357   361     1 
  357   362     1 
  357   379     1 
  357   380     1 
  357   383     1 
  358   360     1 
  358   377     1 
  358   378     1 
  358   382     1 
  359   363     1 
  359   375     1 
  359   377     1 
  359   379     1 
  359   380     1 
  359   382     1 
  360   364     1 
  360   365     1 
  360   366     1 
  360   374     1 
  360   377     1 
  360   381     1 
  360   382     1 
  361   363     1 
  361   375     1 
  361   376     1 
  361   379     1 
  361   380     1 
  362   367     1 
  362   372     1 
  362   376     1 
  362   379     1 
  362   380     1 
  363   367     1 
  363   374     1 
  363   378     1 
  364   366     1 
  364   375     1 
  365   368     1 
  365   371     1 
  365   374     1 
  366   369     1 
  366   370     1 
  366   372     1 
  367   373     1 
  367   374     1 
  368   372     1 
  368   375     1 
  369   371     1 
  370   371     1 
  371   375     1 
  373   375     1 
  375   378     1 
  376   381     1 
  376   384     1 
  376   385     1 
  376   386     1 
  377   379     1 
  377   380     1 
  377   383     1 
  378   383     1 
  379   381     1 
  379   382     1 
  380   382     1 
  382   387     1 
  383   388     1 
  383   389     1 
  383   390     1 
  384   387     1 
  385   387     1 
  386   391     1 
  386   392     1 
  386   406     1 
  387   393     1 
  387   407     1 
  387   408     1 
  387   412     1 
  388   391     1 
  388   392     1 
  388   406     1 
  389   391     1 
  389   392     1 
  389   406     1 
  390   394     1 
  390   395     1 
  390   409     1 
  390   410     1 
  390   413     1 
  391   393     1 
  391   407     1 
  391   408     1 
  391   412     1 
  392   396     1 
  392   404     1 
  392   407     1 
  392   409     1 
  392   410     1 
  392   412     1 
  393   397     1 
  393   398     1 
  393   402     1 
  393   405     1 
  393   407     1 
  393   411     1 
  393   412     1 
  394   396     1 
  394   404     1 
  394   406     1 
  394   409     1 
  394   410     1 
  395   399     1 
  395   400     1 
  395   403     1 
  395   406     1 
  395   409     1 
  395   410     1 
  396   401     1 
  396   402     1 
  396   405     1 
  396   408     1 
  397   399     1 
  397   400     1 
  397   404     1 
  398   403     1 
  398   404     1 
  399   401     1 
  399   402     1 
  400   405     1 
  401   403     1 
  401   404     1 
  403   405     1 
  404   408     1 
  406   411     1 
  406   414     1 
  406   415     1 
  406   416     1 
  407   409     1 
  407   410     1 
  407   413     1 
  408   413     1 
  409   411     1 
  409   412     1 
  410   412     1 
  412   417     1 
  413   418     1 
  413   419     1 
  413   420     1 
  414   417     1 
  415   417     1 
  416   421     1 
  416   422     1 
  416   436     1 
  417   423     1 
  417   437     1 
  417   438     1 
  417   442     1 
  418   421     1 
  418   422     1 
  418   436     1 
  419   421     1 
  419   422     1 
  419   436     1 
  420   424     1 
  420   425     1 
  420   439     1 
  420   440     1 
  420   443     1 
  421   423     1 
  421   437     1 
  421   438     1 
  421   442     1 
  422   426     1 
  422   434     1 
  422   437     1 
  422   439     1 
  422   440     1 
  422   442     1 
  423   427     1 
  423   428     1 
  423   432     1 
  423   435     1 
  423   437     1 
  423   441     1 
  423   442     1 
  424   426     1 
  424   434     1 
  424   436     1 
  424   439     1 
  424   440     1 
  425   429     1 
  425   430     1 
  425   433     1 
  425   436     1 
  425   439     1 
  425   440     1 
  426   431     1 
  426   432     1 
  426   435     1 
  426   438     1 
  427   429     1 
  427   430     1 
  427   434     1 
  428   433     1 
  428   434     1 
  429   431     1 
  429   432     1 
  430   435     1 
  431   433     1 
  431   434     1 
  433   435     1 
  434   438     1 
  436   441     1 
  436   444     1 
  436   445     1 
  436   446     1 
  437   439     1 
  437   440     1 
  437   443     1 
  438   443     1 
  439   441     1 
  439   442     1 
  440   442     1 
  442   447     1 
  443   448     1 
  443   449     1 
  443   450     1 
  444   447     1 
  445   447     1 
  446   451     1 
  446   452     1 
  446   469     1 
  447   453     1 
  447   470     1 
  447   471     1 
  447   475     1 
  448   451     1 
  448   452     1 
  448   469     1 
  449   451     1 
  449   452     1 
  449   469     1 
  450   454     1 
  450   455     1 
  450   472     1 
  450   473     1 
  450   476     1 
  451   453     1 
  451   470     1 
  451   471     1 
  451   475     1 
  452   456     1 
  452   468     1 
  452   470     1 
  452   472     1 
  452   473     1 
  452   475     1 
  453   457     1 
  453   458     1 
  453   459     1 
  453   467     1 
  453   470     1 
  453   474     1 
  453   475     1 
  454   456     1 
  454   468     1 
  454   469     1 
  454   472     1 
  454   473     1 
  455   460     1 
  455   465     1 
  455   469     1 
  455   472     1 
  455   473     1 
  456   460     1 
  456   467     1 
  456   471     1 
  457   459     1 
  457   468     1 
  458   461     1 
  458   464     1 
  458   467     1 
  459   462     1 
  459   463     1 
  459   465     1 
  460   466     1 
  460   467     1 
  461   465     1 
  461   468     1 
  462   464     1 
  463   464     1 
  464   468     1 
  466   468     1 
  468   471     1 
  469   474     1 
  469   477     1 
  469   478     1 
  469   479     1 
  470   472     1 
  470   473     1 
  470   476     1 
  471   476     1 
  472   474     1 
  472   475     1 
  473   475     1 
  475   480     1 
  476   481     1 
  476   482     1 
  476   483     1 
  477   480     1 
  478   480     1 
  479   484     1 
  479   485     1 
  479   503     1 
  480   486     1 
  480   504     1 
  480   505     1 
  480   509     1 
  481   484     1 
  481   485     1 
  481   503     1 
  482   484     1 
  482   485     1 
  482   503     1 
  483   487     1 
  483   488     1 
  483   506     1 
  483   507     1 
  483   510     1 
  484   486     1 
  484   504     1 
  484   505     1 
  484   509     1 
  485   489     1 
  485   502     1 
  485   504     1 
  485   506     1 
  485   507     1 
  485   509     1 
  486   490     1 
  486   491     1 
  486   492     1 
  486   501     1 
  486   504     1 
  486   508     1 
  486   509     1 
  487   489     1 
  487   502     1 
  487   503     1 
  487   506     1 
  487   507     1 
  488   493     1 
  488   497     1 
  488   503     1 
  488   506     1 
  488   507     1 
  489   493     1 
  489   501     1 
  489   505     1 
  490   492     1 
  490   502     1 
  491   494     1 
  491   495     1 
  491   501     1 
  492   496     1 
  492   497     1 
  493   498     1 
  493   501     1 
  494   496     1 
  494   497     1 
  494   502     1 
  495   499     1 
  495   500     1 
  495   502     1 
  496   498     1 
  496   501     1 
  498   502     1 
  499   501     1 
  500   501     1 
  502   505     1 
  503   508     1 
  503   511     1 
  503   512     1 
  503   513     1 
  504   506     1 
  504   507     1 
  504   510     1 
  505   510     1 
  506   508     1 
  506   509     1 
  507   509     1 
  509   514     1 
  510   515     1 
  510   516     1 
  510   517     1 
  511   514     1 
  512   514     1 
  513   518     1 
  513   519     1 
  513   537     1 
  514   520     1 
  514   538     1 
  514   539     1 
  514   543     1 
  515   518     1 
  515   519     1 
  515   537     1 
  516   518     1 
  516   519     1 
  516   537     1 
  517   521     1 
  517   522     1 
  517   540     1 
  517   541     1 
  517   544     1 
  518   520     1 
  518   538     1 
  518   539     1 
  518   543     1 
  519   523     1 
  519   536     1 
  519   538     1 
  519   540     1 
  519   541     1 
  519   543     1 
  520   524     1 
  520   525     1 
  520   526     1 
  520   535     1 
  520   538     1 
  520   542     1 
  520   543     1 
  521   523     1 
  521   536     1 
  521   537     1 
  521   540     1 
  521   541     1 
  522   527     1 
  522   531     1 
  522   537     1 
  522   540     1 
  522   541     1 
  523   527     1 
  523   535     1 
  523   539     1 
  524   526     1 
  524   536     1 
  525   528     1 
  525   529     1 
  525   535     1 
  526   530     1 
  526   531     1 
  527   532     1 
  527   535     1 
  528   530     1 
  528   531     1 
  528   536     1 
  529   533     1 
  529   534     1 
  529   536     1 
  530   532     1 
  530   535     1 
  532   536     1 
  533   535     1 
  534   535     1 
  536   539     1 
  537   542     1 
  537   545     1 
  537   546     1 
  537   547     1 
  538   540     1 
  538   541     1 
  538   544     1 
  539   544     1 
  540   542     1 
  540   543     1 
  541   543     1 
  543   548     1 
  544   549     1 
  544   550     1 
  544   551     1 
  545   548     1 
  546   548     1 
  547   552     1 
  547   553     1 
  547   570     1 
  548   554     1 
  548   571     1 
  548   572     1 
  548   576     1 
  549   552     1 
  549   553     1 
  549   570     1 
  550   552     1 
  550   553     1 
  550   570     1 
  551   555     1 
  551   556     1 
  551   573     1 
  551   574     1 
  551   577     1 
  552   554     1 
  552   571     1 
  552   572     1 
  552   576     1 
  553   557     1 
  553   569     1 
  553   571     1 
  553   573     1 
  553   574     1 
  553   576     1 
  554   558     1 
  554   559     1 
  554   560     1 
  554   568     1 
  554   571     1 
  554   575     1 
  554   576     1 
  555   557     1 
  555   569     1 
  555   570     1 
  555   573     1 
  555   574     1 
  556   561     1 
  556   566     1 
  556   570     1 
  556   573     1 
  556   574     1 
  557   561     1 
  557   568     1 
  557   572     1 
  558   560     1 
  558   569     1 
  559   562     1 
  559   565     1 
  559   568     1 
  560   563     1 
  560   564     1 
  560   566     1 
  561   567     1 
  561   568     1 
  562   566     1 
  562   569     1 
  563   565     1 
  564   565     1 
  565   569     1 
  567   569     1 
  569   572     1 
  570   575     1 
  570   578     1 
  570   579     1 
  570   580     1 
  571   573     1 
  571   574     1 
  571   577     1 
  572   577     1 
  573   575     1 
  573   576     1 
  574   576     1 
  576   581     1 
  577   582     1 
  577   583     1 
  577   584     1 
  578   581     1 
  579   581     1 
  580   585     1 
  580   586     1 
  580   604     1 
  581   587     1 
  581   605     1 
  581   606     1 
  581   610     1 
  582   585     1 
  582   586     1 
  582   604     1 
  583   585     1 
  583   586     1 
  583   604     1 
  584   588     1 
  584   589     1 
  584   607     1 
  584   608     1 
  584   611     1 
  585   587     1 
  585   605     1 
  585   606     1 
  585   610     1 
  586   590     1 
  586   603     1 
  586   605     1 
  586   607     1 
  586   608     1 
  586   610     1 
  587   591     1 
  587   592     1 
  587   593     1 
  587   602     1 
  587   605     1 
  587   609     1 
  587   610     1 
  588   590     1 
  588   603     1 
  588   604     1 
  588   607     1 
  588   608     1 
  589   594     1 
  589   598     1 
  589   604     1 
  589   607     1 
  589   608     1 
  590   594     1 
  590   602     1 
  590   606     1 
  591   593     1 
  591   603     1 
  592   595     1 
  592   596     1 
  592   602     1 
  593   597     1 
  593   598     1 
  594   599     1 
  594   602     1 
  595   597     1 
  595   598     1 
  595   603     1 
  596   600     1 
  596   601     1 
  596   603     1 
  597   599     1 
  597   602     1 
  599   603     1 
  600   602     1 
  601   602     1 
  603   606     1 
  604   609     1 
  604   612     1 
  604   613     1 
  604   614     1 
  605   607     1 
  605   608     1 
  605   611     1 
  606   611     1 
  607   609     1 
  607   610     1 
  608   610     1 
  610   615     1 
  611   616     1 
  611   617     1 
  611   618     1 
  612   615     1 
  613   615     1 
  614   619     1 
  614   620     1 
  614   637     1 
  615   621     1 
  615   638     1 
  615   639     1 
  615   643     1 
  616   619     1 
  616   620     1 
  616   637     1 
  617   619     1 
  617   620     1 
  617   637     1 
  618   622     1 
  618   623     1 
  618   640     1 
  618   641     1 
  618   644     1 
  619   621     1 
  619   638     1 
  619   639     1 
  619   643     1 
  620   624     1 
  620   636     1 
  620   638     1 
  620   640     1 
  620   641     1 
  620   643     1 
  621   625     1 
  621   626     1 
  621   627     1 
  621   635     1 
  621   638     1 
  621   642     1 
  621   643     1 
  622   624     1 
  622   636     1 
  622   637     1 
  622   640     1 
  622   641     1 
  623   628     1 
  623   633     1 
  623   637     1 
  623   640     1 
  623   641     1 
  624   628     1 
  624   635     1 
  624   639     1 
  625   627     1 
  625   636     1 
  626   629     1 
  626   632     1 
  626   635     1 
  627   630     1 
  627   631     1 
  627   633     1 
  628   634     1 
  628   635     1 
  629   633     1 
  629   636     1 
  630   632     1 
  631   632     1 
  632   636     1 
  634   636     1 
  636   639     1 
  637   642     1 
  637   645     1 
  637   646     1 
  637   647     1 
  638   640     1 
  638   641     1 
  638   644     1 
  639   644     1 
  640   642     1 
  640   643     1 
  641   643     1 
  643   648     1 
  644   649     1 
  644   650     1 
  644   651     1 
  645   648     1 
  646   648     1 
  647   652     1 
  647   653     1 
  647   667     1 
  648   654     1 
  648   668     1 
  648   669     1 
  648   673     1 
  649   652     1 
  649   653     1 
  649   667     1 
  650   652     1 
  650   653     1 
  650   667     1 
  651   655     1 
  651   656     1 
  651   670     1 
  651   671     1 
  651   674     1 
  652   654     1 
  652   668     1 
  652   669     1 
  652   673     1 
  653   657     1 
  653   665     1 
  653   668     1 
  653   670     1 
  653   671     1 
  653   673     1 
  654   658     1 
  654   659     1 
  654   663     1 
  654   666     1 
  654   668     1 
  654   672     1 
  654   673     1 
  655   657     1 
  655   665     1 
  655   667     1 
  655   670     1 
  655   671     1 
  656   660     1 
  656   661     1 
  656   664     1 
  656   667     1 
  656   670     1 
  656   671     1 
  657   662     1 
  657   663     1 
  657   666     1 
  657   669     1 
  658   660     1 
  658   661     1 
  658   665     1 
  659   664     1 
  659   665     1 
  660   662     1 
  660   663     1 
  661   666     1 
  662   664     1 
  662   665     1 
  664   666     1 
  665   669     1 
  667   672     1 
  668   670     1 
  668   671     1 
  668   674     1 
  669   674     1 
  670   672     1 
  670   673     1 
  671   673     1 

[ angles ]
;  ai    aj    ak funct            c0            c1            c2            c3
    2     1     3     1 
    1     3     4     1 
    1     3     5     1 
    1     3     6     1 
    4     3     5     1 
    4     3     6     1 
    5     3     6     1 
    3     6     7     1 
    3     6     8     1 
    3     6    25     1 
    7     6     8     1 
    7     6    25     1 
    8     6    25     1 
    6     8     9     1 
    8     9    10     1 
    8     9    11     1 
    8     9    27     1 
   10     9    11     1 
   10     9    27     1 
   11     9    27     1 
    9    11    12     1 
    9    11    24     1 
   12    11    24     1 
   11    12    13     1 
   11    12    14     1 
   13    12    14     1 
   12    14    15     1 
   14    15    16     1 
   14    15    24     1 
   16    15    24     1 
   15    16    17     1 
   15    16    20     1 
   17    16    20     1 
   16    17    18     1 
   16    17    19     1 
   18    17    19     1 
   16    20    21     1 
   20    21    22     1 
   20    21    23     1 
   22    21    23     1 
   21    23    24     1 
   11    24    15     1 
   11    24    23     1 
   15    24    23     1 
    6    25    26     1 
    6    25    27     1 
    6    25    31     1 
   26    25    27     1 
   26    25    31     1 
   27    25    31     1 
    9    27    25     1 
    9    27    28     1 
    9    27    29     1 
   25    27    28     1 
   25    27    29     1 
   28    27    29     1 
   27    29    30     1 
   25    31    32     1 
   31    32    33     1 
   31    32    34     1 
   31    32    35     1 
   33    32    34     1 
   33    32    35     1 
   34    32    35     1 
   32    35    36     1 
   35    36    37     1 
   35    36    38     1 
   35    36    39     1 
   37    36    38     1 
   37    36    39     1 
   38    36    39     1 
   36    39    40     1 
   36    39    41     1 
   36    39    55     1 
   40    39    41     1 
   40    39    55     1 
   41    39    55     1 
   39    41    42     1 
   41    42    43     1 
   41    42    44     1 
   41    42    57     1 
   43    42    44     1 
   43    42    57     1 
   44    42    57     1 
   42    44    45     1 
   42    44    53     1 
   45    44    53     1 
   44    45    46     1 
   44    45    47     1 
   46    45    47     1 
   45    47    48     1 
   45    47    49     1 
   48    47    49     1 
   47    49    50     1 
   47    49    51     1 
   50    49    51     1 
   49    51    52     1 
   49    51    53     1 
   52    51    53     1 
   44    53    51     1 
   44    53    54     1 
   51    53    54     1 
   39    55    56     1 
   39    55    57     1 
   39    55    61     1 
   56    55    57     1 
   56    55    61     1 
   57    55    61     1 
   42    57    55     1 
   42    57    58     1 
   42    57    59     1 
   55    57    58     1 
   55    57    59     1 
   58    57    59     1 
   57    59    60     1 
   55    61    62     1 
   61    62    63     1 
   61    62    64     1 
   61    62    65     1 
   63    62    64     1 
   63    62    65     1 
   64    62    65     1 
   62    65    66     1 
   65    66    67     1 
   65    66    68     1 
   65    66    69     1 
   67    66    68     1 
   67    66    69     1 
   68    66    69     1 
   66    69    70     1 
   66    69    71     1 
   66    69    88     1 
   70    69    71     1 
   70    69    88     1 
   71    69    88     1 
   69    71    72     1 
   71    72    73     1 
   71    72    74     1 
   71    72    90     1 
   73    72    74     1 
   73    72    90     1 
   74    72    90     1 
   72    74    75     1 
   72    74    87     1 
   75    74    87     1 
   74    75    76     1 
   74    75    77     1 
   76    75    77     1 
   75    77    78     1 
   77    78    79     1 
   77    78    87     1 
   79    78    87     1 
   78    79    80     1 
   78    79    83     1 
   80    79    83     1 
   79    80    81     1 
   79    80    82     1 
   81    80    82     1 
   79    83    84     1 
   83    84    85     1 
   83    84    86     1 
   85    84    86     1 
   84    86    87     1 
   74    87    78     1 
   74    87    86     1 
   78    87    86     1 
   69    88    89     1 
   69    88    90     1 
   69    88    94     1 
   89    88    90     1 
   89    88    94     1 
   90    88    94     1 
   72    90    88     1 
   72    90    91     1 
   72    90    92     1 
   88    90    91     1 
   88    90    92     1 
   91    90    92     1 
   90    92    93     1 
   88    94    95     1 
   94    95    96     1 
   94    95    97     1 
   94    95    98     1 
   96    95    97     1 
   96    95    98     1 
   97    95    98     1 
   95    98    99     1 
   98    99   100     1 
   98    99   101     1 
   98    99   102     1 
  100    99   101     1 
  100    99   102     1 
  101    99   102     1 
   99   102   103     1 
   99   102   104     1 
   99   102   122     1 
  103   102   104     1 
  103   102   122     1 
  104   102   122     1 
  102   104   105     1 
  104   105   106     1 
  104   105   107     1 
  104   105   124     1 
  106   105   107     1 
  106   105   124     1 
  107   105   124     1 
  105   107   108     1 
  105   107   121     1 
  108   107   121     1 
  107   108   109     1 
  107   108   110     1 
  109   108   110     1 
  108   110   111     1 
  110   111   112     1 
  110   111   121     1 
  112   111   121     1 
  111   112   113     1 
  111   112   114     1 
  113   112   114     1 
  112   114   115     1 
  112   114   116     1 
  115   114   116     1 
  114   116   117     1 
  114   116   120     1 
  117   116   120     1 
  116   117   118     1 
  116   117   119     1 
  118   117   119     1 
  116   120   121     1 
  107   121   111     1 
  107   121   120     1 
  111   121   120     1 
  102   122   123     1 
  102   122   124     1 
  102   122   128     1 
  123   122   124     1 
  123   122   128     1 
  124   122   128     1 
  105   124   122     1 
  105   124   125     1 
  105   124   126     1 
  122   124   125     1 
  122   124   126     1 
  125   124   126     1 
  124   126   127     1 
  122   128   129     1 
  128   129   130     1 
  128   129   131     1 
  128   129   132     1 
  130   129   131     1 
  130   129   132     1 
  131   129   132     1 
  129   132   133     1 
  132   133   134     1 
  132   133   135     1 
  132   133   136     1 
  134   133   135     1 
  134   133   136     1 
  135   133   136     1 
  133   136   137     1 
  133   136   138     1 
  133   136   156     1 
  137   136   138     1 
  137   136   156     1 
  138   136   156     1 
  136   138   139     1 
  138   139   140     1 
  138   139   141     1 
  138   139   158     1 
  140   139   141     1 
  140   139   158     1 
  141   139   158     1 
  139   141   142     1 
  139   141   155     1 
  142   141   155     1 
  141   142   143     1 
  141   142   144     1 
  143   142   144     1 
  142   144   145     1 
  144   145   146     1 
  144   145   155     1 
  146   145   155     1 
  145   146   147     1 
  145   146   148     1 
  147   146   148     1 
  146   148   149     1 
  146   148   150     1 
  149   148   150     1 
  148   150   151     1 
  148   150   154     1 
  151   150   154     1 
  150   151   152     1 
  150   151   153     1 
  152   151   153     1 
  150   154   155     1 
  141   155   145     1 
  141   155   154     1 
  145   155   154     1 
  136   156   157     1 
  136   156   158     1 
  136   156   162     1 
  157   156   158     1 
  157   156   162     1 
  158   156   162     1 
  139   158   156     1 
  139   158   159     1 
  139   158   160     1 
  156   158   159     1 
  156   158   160     1 
  159   158   160     1 
  158   160   161     1 
  156   162   163     1 
  162   163   164     1 
  162   163   165     1 
  162   163   166     1 
  164   163   165     1 
  164   163   166     1 
  165   163   166     1 
  163   166   167     1 
  166   167   168     1 
  166   167   169     1 
  166   167   170     1 
  168   167   169     1 
  168   167   170     1 
  169   167   170     1 
  167   170   171     1 
  167   170   172     1 
  167   170   189     1 
  171   170   172     1 
  171   170   189     1 
  172   170   189     1 
  170   172   173     1 
  172   173   174     1 
  172   173   175     1 
  172   173   191     1 
  174   173   175     1 
  174   173   191     1 
  175   173   191     1 
  173   175   176     1 
  173   175   188     1 
  176   175   188     1 
  175   176   177     1 
  175   176   178     1 
  177   176   178     1 
  176   178   179     1 
  178   179   180     1 
  178   179   188     1 
  180   179   188     1 
  179   180   181     1 
  179   180   184     1 
  181   180   184     1 
  180   181   182     1 
  180   181   183     1 
  182   181   183     1 
  180   184   185     1 
  184   185   186     1 
  184   185   187     1 
  186   185   187     1 
  185   187   188     1 
  175   188   179     1 
  175   188   187     1 
  179   188   187     1 
  170   189   190     1 
  170   189   191     1 
  170   189   195     1 
  190   189   191     1 
  190   189   195     1 
  191   189   195     1 
  173   191   189     1 
  173   191   192     1 
  173   191   193     1 
  189   191   192     1 
  189   191   193     1 
  192   191   193     1 
  191   193   194     1 
  189   195   196     1 
  195   196   197     1 
  195   196   198     1 
  195   196   199     1 
  197   196   198     1 
  197   196   199     1 
  198   196   199     1 
  196   199   200     1 
  199   200   201     1 
  199   200   202     1 
  199   200   203     1 
  201   200   202     1 
  201   200   203     1 
  202   200   203     1 
  200   203   204     1 
  200   203   205     1 
  200   203   219     1 
  204   203   205     1 
  204   203   219     1 
  205   203   219     1 
  203   205   206     1 
  205   206   207     1 
  205   206   208     1 
  205   206   221     1 
  207   206   208     1 
  207   206   221     1 
  208   206   221     1 
  206   208   209     1 
  206   208   217     1 
  209   208   217     1 
  208   209   210     1 
  208   209   211     1 
  210   209   211     1 
  209   211   212     1 
  209   211   213     1 
  212   211   213     1 
  211   213   214     1 
  211   213   215     1 
  214   213   215     1 
  213   215   216     1 
  213   215   217     1 
  216   215   217     1 
  208   217   215     1 
  208   217   218     1 
  215   217   218     1 
  203   219   220     1 
  203   219   221     1 
  203   219   225     1 
  220   219   221     1 
  220   219   225     1 
  221   219   225     1 
  206   221   219     1 
  206   221   222     1 
  206   221   223     1 
  219   221   222     1 
  219   221   223     1 
  222   221   223     1 
  221   223   224     1 
  219   225   226     1 
  225   226   227     1 
  225   226   228     1 
  225   226   229     1 
  227   226   228     1 
  227   226   229     1 
  228   226   229     1 
  226   229   230     1 
  229   230   231     1 
  229   230   232     1 
  229   230   233     1 
  231   230   232     1 
  231   230   233     1 
  232   230   233     1 
  230   233   234     1 
  230   233   235     1 
  230   233   249     1 
  234   233   235     1 
  234   233   249     1 
  235   233   249     1 
  233   235   236     1 
  235   236   237     1 
  235   236   238     1 
  235   236   251     1 
  237   236   238     1 
  237   236   251     1 
  238   236   251     1 
  236   238   239     1 
  236   238   247     1 
  239   238   247     1 
  238   239   240     1 
  238   239   241     1 
  240   239   241     1 
  239   241   242     1 
  239   241   243     1 
  242   241   243     1 
  241   243   244     1 
  241   243   245     1 
  244   243   245     1 
  243   245   246     1 
  243   245   247     1 
  246   245   247     1 
  238   247   245     1 
  238   247   248     1 
  245   247   248     1 
  233   249   250     1 
  233   249   251     1 
  233   249   255     1 
  250   249   251     1 
  250   249   255     1 
  251   249   255     1 
  236   251   249     1 
  236   251   252     1 
  236   251   253     1 
  249   251   252     1 
  249   251   253     1 
  252   251   253     1 
  251   253   254     1 
  249   255   256     1 
  255   256   257     1 
  255   256   258     1 
  255   256   259     1 
  257   256   258     1 
  257   256   259     1 
  258   256   259     1 
  256   259   260     1 
  259   260   261     1 
  259   260   262     1 
  259   260   263     1 
  261   260   262     1 
  261   260   263     1 
  262   260   263     1 
  260   263   264     1 
  260   263   265     1 
  260   263   280     1 
  264   263   265     1 
  264   263   280     1 
  265   263   280     1 
  263   265   266     1 
  265   266   267     1 
  265   266   268     1 
  265   266   282     1 
  267   266   268     1 
  267   266   282     1 
  268   266   282     1 
  266   268   269     1 
  266   268   278     1 
  269   268   278     1 
  268   269   270     1 
  268   269   271     1 
  270   269   271     1 
  269   271   272     1 
  269   271   273     1 
  272   271   273     1 
  271   273   274     1 
  271   273   277     1 
  274   273   277     1 
  273   274   275     1 
  273   274   276     1 
  275   274   276     1 
  273   277   278     1 
  268   278   277     1 
  268   278   279     1 
  277   278   279     1 
  263   280   281     1 
  263   280   282     1 
  263   280   286     1 
  281   280   282     1 
  281   280   286     1 
  282   280   286     1 
  266   282   280     1 
  266   282   283     1 
  266   282   284     1 
  280   282   283     1 
  280   282   284     1 
  283   282   284     1 
  282   284   285     1 
  280   286   287     1 
  286   287   288     1 
  286   287   289     1 
  286   287   290     1 
  288   287   289     1 
  288   287   290     1 
  289   287   290     1 
  287   290   291     1 
  290   291   292     1 
  290   291   293     1 
  290   291   294     1 
  292   291   293     1 
  292   291   294     1 
  293   291   294     1 
  291   294   295     1 
  291   294   296     1 
  291   294   313     1 
  295   294   296     1 
  295   294   313     1 
  296   294   313     1 
  294   296   297     1 
  296   297   298     1 
  296   297   299     1 
  296   297   315     1 
  298   297   299     1 
  298   297   315     1 
  299   297   315     1 
  297   299   300     1 
  297   299   312     1 
  300   299   312     1 
  299   300   301     1 
  299   300   302     1 
  301   300   302     1 
  300   302   303     1 
  302   303   304     1 
  302   303   312     1 
  304   303   312     1 
  303   304   305     1 
  303   304   308     1 
  305   304   308     1 
  304   305   306     1 
  304   305   307     1 
  306   305   307     1 
  304   308   309     1 
  308   309   310     1 
  308   309   311     1 
  310   309   311     1 
  309   311   312     1 
  299   312   303     1 
  299   312   311     1 
  303   312   311     1 
  294   313   314     1 
  294   313   315     1 
  294   313   319     1 
  314   313   315     1 
  314   313   319     1 
  315   313   319     1 
  297   315   313     1 
  297   315   316     1 
  297   315   317     1 
  313   315   316     1 
  313   315   317     1 
  316   315   317     1 
  315   317   318     1 
  313   319   320     1 
  319   320   321     1 
  319   320   322     1 
  319   320   323     1 
  321   320   322     1 
  321   320   323     1 
  322   320   323     1 
  320   323   324     1 
  323   324   325     1 
  323   324   326     1 
  323   324   327     1 
  325   324   326     1 
  325   324   327     1 
  326   324   327     1 
  324   327   328     1 
  324   327   329     1 
  324   327   343     1 
  328   327   329     1 
  328   327   343     1 
  329   327   343     1 
  327   329   330     1 
  329   330   331     1 
  329   330   332     1 
  329   330   345     1 
  331   330   332     1 
  331   330   345     1 
  332   330   345     1 
  330   332   333     1 
  330   332   341     1 
  333   332   341     1 
  332   333   334     1 
  332   333   335     1 
  334   333   335     1 
  333   335   336     1 
  333   335   337     1 
  336   335   337     1 
  335   337   338     1 
  335   337   339     1 
  338   337   339     1 
  337   339   340     1 
  337   339   341     1 
  340   339   341     1 
  332   341   339     1 
  332   341   342     1 
  339   341   342     1 
  327   343   344     1 
  327   343   345     1 
  327   343   349     1 
  344   343   345     1 
  344   343   349     1 
  345   343   349     1 
  330   345   343     1 
  330   345   346     1 
  330   345   347     1 
  343   345   346     1 
  343   345   347     1 
  346   345   347     1 
  345   347   348     1 
  343   349   350     1 
  349   350   351     1 
  349   350   352     1 
  349   350   353     1 
  351   350   352     1 
  351   350   353     1 
  352   350   353     1 
  350   353   354     1 
  353   354   355     1 
  353   354   356     1 
  353   354   357     1 
  355   354   356     1 
  355   354   357     1 
  356   354   357     1 
  354   357   358     1 
  354   357   359     1 
  354   357   376     1 
  358   357   359     1 
  358   357   376     1 
  359   357   376     1 
  357   359   360     1 
  359   360   361     1 
  359   360   362     1 
  359   360   378     1 
  361   360   362     1 
  361   360   378     1 
  362   360   378     1 
  360   362   363     1 
  360   362   375     1 
  363   362   375     1 
  362   363   364     1 
  362   363   365     1 
  364   363   365     1 
  363   365   366     1 
  365   366   367     1 
  365   366   375     1 
  367   366   375     1 
  366   367   368     1 
  366   367   371     1 
  368   367   371     1 
  367   368   369     1 
  367   368   370     1 
  369   368   370     1 
  367   371   372     1 
  371   372   373     1 
  371   372   374     1 
  373   372   374     1 
  372   374   375     1 
  362   375   366     1 
  362   375   374     1 
  366   375   374     1 
  357   376   377     1 
  357   376   378     1 
  357   376   382     1 
  377   376   378     1 
  377   376   382     1 
  378   376   382     1 
  360   378   376     1 
  360   378   379     1 
  360   378   380     1 
  376   378   379     1 
  376   378   380     1 
  379   378   380     1 
  378   380   381     1 
  376   382   383     1 
  382   383   384     1 
  382   383   385     1 
  382   383   386     1 
  384   383   385     1 
  384   383   386     1 
  385   383   386     1 
  383   386   387     1 
  386   387   388     1 
  386   387   389     1 
  386   387   390     1 
  388   387   389     1 
  388   387   390     1 
  389   387   390     1 
  387   390   391     1 
  387   390   392     1 
  387   390   406     1 
  391   390   392     1 
  391   390   406     1 
  392   390   406     1 
  390   392   393     1 
  392   393   394     1 
  392   393   395     1 
  392   393   408     1 
  394   393   395     1 
  394   393   408     1 
  395   393   408     1 
  393   395   396     1 
  393   395   404     1 
  396   395   404     1 
  395   396   397     1 
  395   396   398     1 
  397   396   398     1 
  396   398   399     1 
  396   398   400     1 
  399   398   400     1 
  398   400   401     1 
  398   400   402     1 
  401   400   402     1 
  400   402   403     1 
  400   402   404     1 
  403   402   404     1 
  395   404   402     1 
  395   404   405     1 
  402   404   405     1 
  390   406   407     1 
  390   406   408     1 
  390   406   412     1 
  407   406   408     1 
  407   406   412     1 
  408   406   412     1 
  393   408   406     1 
  393   408   409     1 
  393   408   410     1 
  406   408   409     1 
  406   408   410     1 
  409   408   410     1 
  408   410   411     1 
  406   412   413     1 
  412   413   414     1 
  412   413   415     1 
  412   413   416     1 
  414   413   415     1 
  414   413   416     1 
  415   413   416     1 
  413   416   417     1 
  416   417   418     1 
  416   417   419     1 
  416   417   420     1 
  418   417   419     1 
  418   417   420     1 
  419   417   420     1 
  417   420   421     1 
  417   420   422     1 
  417   420   436     1 
  421   420   422     1 
  421   420   436     1 
  422   420   436     1 
  420   422   423     1 
  422   423   424     1 
  422   423   425     1 
  422   423   438     1 
  424   423   425     1 
  424   423   438     1 
  425   423   438     1 
  423   425   426     1 
  423   425   434     1 
  426   425   434     1 
  425   426   427     1 
  425   426   428     1 
  427   426   428     1 
  426   428   429     1 
  426   428   430     1 
  429   428   430     1 
  428   430   431     1 
  428   430   432     1 
  431   430   432     1 
  430   432   433     1 
  430   432   434     1 
  433   432   434     1 
  425   434   432     1 
  425   434   435     1 
  432   434   435     1 
  420   436   437     1 
  420   436   438     1 
  420   436   442     1 
  437   436   438     1 
  437   436   442     1 
  438   436   442     1 
  423   438   436     1 
  423   438   439     1 
  423   438   440     1 
  436   438   439     1 
  436   438   440     1 
  439   438   440     1 
  438   440   441     1 
  436   442   443     1 
  442   443   444     1 
  442   443   445     1 
  442   443   446     1 
  444   443   445     1 
  444   443   446     1 
  445   443   446     1 
  443   446   447     1 
  446   447   448     1 
  446   447   449     1 
  446   447   450     1 
  448   447   449     1 
  448   447   450     1 
  449   447   450     1 
  447   450   451     1 
  447   450   452     1 
  447   450   469     1 
  451   450   452     1 
  451   450   469     1 
  452   450   469     1 
  450   452   453     1 
  452   453   454     1 
  452   453   455     1 
  452   453   471     1 
  454   453   455     1 
  454   453   471     1 
  455   453   471     1 
  453   455   456     1 
  453   455   468     1 
  456   455   468     1 
  455   456   457     1 
  455   456   458     1 
  457   456   458     1 
  456   458   459     1 
  458   459   460     1 
  458   459   468     1 
  460   459   468     1 
  459   460   461     1 
  459   460   464     1 
  461   460   464     1 
  460   461   462     1 
  460   461   463     1 
  462   461   463     1 
  460   464   465     1 
  464   465   466     1 
  464   465   467     1 
  466   465   467     1 
  465   467   468     1 
  455   468   459     1 
  455   468   467     1 
  459   468   467     1 
  450   469   470     1 
  450   469   471     1 
  450   469   475     1 
  470   469   471     1 
  470   469   475     1 
  471   469   475     1 
  453   471   469     1 
  453   471   472     1 
  453   471   473     1 
  469   471   472     1 
  469   471   473     1 
  472   471   473     1 
  471   473   474     1 
  469   475   476     1 
  475   476   477     1 
  475   476   478     1 
  475   476   479     1 
  477   476   478     1 
  477   476   479     1 
  478   476   479     1 
  476   479   480     1 
  479   480   481     1 
  479   480   482     1 
  479   480   483     1 
  481   480   482     1 
  481   480   483     1 
  482   480   483     1 
  480   483   484     1 
  480   483   485     1 
  480   483   503     1 
  484   483   485     1 
  484   483   503     1 
  485   483   503     1 
  483   485   486     1 
  485   486   487     1 
  485   486   488     1 
  485   486   505     1 
  487   486   488     1 
  487   486   505     1 
  488   486   505     1 
  486   488   489     1 
  486   488   502     1 
  489   488   502     1 
  488   489   490     1 
  488   489   491     1 
  490   489   491     1 
  489   491   492     1 
  491   492   493     1 
  491   492   502     1 
  493   492   502     1 
  492   493   494     1 
  492   493   495     1 
  494   493   495     1 
  493   495   496     1 
  493   495   497     1 
  496   495   497     1 
  495   497   498     1 
  495   497   501     1 
  498   497   501     1 
  497   498   499     1 
  497   498   500     1 
  499   498   500     1 
  497   501   502     1 
  488   502   492     1 
  488   502   501     1 
  492   502   501     1 
  483   503   504     1 
  483   503   505     1 
  483   503   509     1 
  504   503   505     1 
  504   503   509     1 
  505   503   509     1 
  486   505   503     1 
  486   505   506     1 
  486   505   507     1 
  503   505   506     1 
  503   505   507     1 
  506   505   507     1 
  505   507   508     1 
  503   509   510     1 
  509   510   511     1 
  509   510   512     1 
  509   510   513     1 
  511   510   512     1 
  511   510   513     1 
  512   510   513     1 
  510   513   514     1 
  513   514   515     1 
  513   514   516     1 
  513   514   517     1 
  515   514   516     1 
  515   514   517     1 
  516   514   517     1 
  514   517   518     1 
  514   517   519     1 
  514   517   537     1 
  518   517   519     1 
  518   517   537     1 
  519   517   537     1 
  517   519   520     1 
  519   520   521     1 
  519   520   522     1 
  519   520   539     1 
  521   520   522     1 
  521   520   539     1 
  522   520   539     1 
  520   522   523     1 
  520   522   536     1 
  523   522   536     1 
  522   523   524     1 
  522   523   525     1 
  524   523   525     1 
  523   525   526     1 
  525   526   527     1 
  525   526   536     1 
  527   526   536     1 
  526   527   528     1 
  526   527   529     1 
  528   527   529     1 
  527   529   530     1 
  527   529   531     1 
  530   529   531     1 
  529   531   532     1 
  529   531   535     1 
  532   531   535     1 
  531   532   533     1 
  531   532   534     1 
  533   532   534     1 
  531   535   536     1 
  522   536   526     1 
  522   536   535     1 
  526   536   535     1 
  517   537   538     1 
  517   537   539     1 
  517   537   543     1 
  538   537   539     1 
  538   537   543     1 
  539   537   543     1 
  520   539   537     1 
  520   539   540     1 
  520   539   541     1 
  537   539   540     1 
  537   539   541     1 
  540   539   541     1 
  539   541   542     1 
  537   543   544     1 
  543   544   545     1 
  543   544   546     1 
  543   544   547     1 
  545   544   546     1 
  545   544   547     1 
  546   544   547     1 
  544   547   548     1 
  547   548   549     1 
  547   548   550     1 
  547   548   551     1 
  549   548   550     1 
  549   548   551     1 
  550   548   551     1 
  548   551   552     1 
  548   551   553     1 
  548   551   570     1 
  552   551   553     1 
  552   551   570     1 
  553   551   570     1 
  551   553   554     1 
  553   554   555     1 
  553   554   556     1 
  553   554   572     1 
  555   554   556     1 
  555   554   572     1 
  556   554   572     1 
  554   556   557     1 
  554   556   569     1 
  557   556   569     1 
  556   557   558     1 
  556   557   559     1 
  558   557   559     1 
  557   559   560     1 
  559   560   561     1 
  559   560   569     1 
  561   560   569     1 
  560   561   562     1 
  560   561   565     1 
  562   561   565     1 
  561   562   563     1 
  561   562   564     1 
  563   562   564     1 
  561   565   566     1 
  565   566   567     1 
  565   566   568     1 
  567   566   568     1 
  566   568   569     1 
  556   569   560     1 
  556   569   568     1 
  560   569   568     1 
  551   570   571     1 
  551   570   572     1 
  551   570   576     1 
  571   570   572     1 
  571   570   576     1 
  572   570   576     1 
  554   572   570     1 
  554   572   573     1 
  554   572   574     1 
  570   572   573     1 
  570   572   574     1 
  573   572   574     1 
  572   574   575     1 
  570   576   577     1 
  576   577   578     1 
  576   577   579     1 
  576   577   580     1 
  578   577   579     1 
  578   577   580     1 
  579   577   580     1 
  577   580   581     1 
  580   581   582     1 
  580   581   583     1 
  580   581   584     1 
  582   581   583     1 
  582   581   584     1 
  583   581   584     1 
  581   584   585     1 
  581   584   586     1 
  581   584   604     1 
  585   584   586     1 
  585   584   604     1 
  586   584   604     1 
  584   586   587     1 
  586   587   588     1 
  586   587   589     1 
  586   587   606     1 
  588   587   589     1 
  588   587   606     1 
  589   587   606     1 
  587   589   590     1 
  587   589   603     1 
  590   589   603     1 
  589   590   591     1 
  589   590   592     1 
  591   590   592     1 
  590   592   593     1 
  592   593   594     1 
  592   593   603     1 
  594   593   603     1 
  593   594   595     1 
  593   594   596     1 
  595   594   596     1 
  594   596   597     1 
  594   596   598     1 
  597   596   598     1 
  596   598   599     1 
  596   598   602     1 
  599   598   602     1 
  598   599   600     1 
  598   599   601     1 
  600   599   601     1 
  598   602   603     1 
  589   603   593     1 
  589   603   602     1 
  593   603   602     1 
  584   604   605     1 
  584   604   606     1 
  584   604   610     1 
  605   604   606     1 
  605   604   610     1 
  606   604   610     1 
  587   606   604     1 
  587   606   607     1 
  587   606   608     1 
  604   606   607     1 
  604   606   608     1 
  607   606   608     1 
  606   608   609     1 
  604   610   611     1 
  610   611   612     1 
  610   611   613     1 
  610   611   614     1 
  612   611   613     1 
  612   611   614     1 
  613   611   614     1 
  611   614   615     1 
  614   615   616     1 
  614   615   617     1 
  614   615   618     1 
  616   615   617     1 
  616   615   618     1 
  617   615   618     1 
  615   618   619     1 
  615   618   620     1 
  615   618   637     1 
  619   618   620     1 
  619   618   637     1 
  620   618   637     1 
  618   620   621     1 
  620   621   622     1 
  620   621   623     1 
  620   621   639     1 
  622   621   623     1 
  622   621   639     1 
  623   621   639     1 
  621   623   624     1 
  621   623   636     1 
  624   623   636     1 
  623   624   625     1 
  623   624   626     1 
  625   624   626     1 
  624   626   627     1 
  626   627   628     1 
  626   627   636     1 
  628   627   636     1 
  627   628   629     1 
  627   628   632     1 
  629   628   632     1 
  628   629   630     1 
  628   629   631     1 
  630   629   631     1 
  628   632   633     1 
  632   633   634     1 
  632   633   635     1 
  634   633   635     1 
  633   635   636     1 
  623   636   627     1 
  623   636   635     1 
  627   636   635     1 
  618   637   638     1 
  618   637   639     1 
  618   637   643     1 
  638   637   639     1 
  638   637   643     1 
  639   637   643     1 
  621   639   637     1 
  621   639   640     1 
  621   639   641     1 
  637   639   640     1 
  637   639   641     1 
  640   639   641     1 
  639   641   642     1 
  637   643   644     1 
  643   644   645     1 
  643   644   646     1 
  643   644   647     1 
  645   644   646     1 
  645   644   647     1 
  646   644   647     1 
  644   647   648     1 
  647   648   649     1 
  647   648   650     1 
  647   648   651     1 
  649   648   650     1 
  649   648   651     1 
  650   648   651     1 
  648   651   652     1 
  648   651   653     1 
  648   651   667     1 
  652   651   653     1 
  652   651   667     1 
  653   651   667     1 
  651   653   654     1 
  653   654   655     1 
  653   654   656     1 
  653   654   669     1 
  655   654   656     1 
  655   654   669     1 
  656   654   669     1 
  654   656   657     1 
  654   656   665     1 
  657   656   665     1 
  656   657   658     1 
  656   657   659     1 
  658   657   659     1 
  657   659   660     1 
  657   659   661     1 
  660   659   661     1 
  659   661   662     1 
  659   661   663     1 
  662   661   663     1 
  661   663   664     1 
  661   663   665     1 
  664   663   665     1 
  656   665   663     1 
  656   665   666     1 
  663   665   666     1 
  651   667   668     1 
  651   667   669     1 
  651   667   673     1 
  668   667   669     1 
  668   667   673     1 
  669   667   673     1 
  654   669   667     1 
  654   669   670     1 
  654   669   671     1 
  667   669   670     1 
  667   669   671     1 
  670   669   671     1 
  669   671   672     1 
  667   673   674     1 

[ dihedrals ]
;  ai    aj    ak    al funct            c0            c1            c2            c3            c4            c5
    2     1     3     4     9 
    2     1     3     5     9 
    2     1     3     6     9 
    1     3     6     7     9 
    1     3     6     8     9 
    1     3     6    25     9 
    4     3     6     7     9 
    4     3     6     8     9 
    4     3     6    25     9 
    5     3     6     7     9 
    5     3     6     8     9 
    5     3     6    25     9 
    3     6     8     9     9 
    7     6     8     9     9 
   25     6     8     9     9 
    3     6    25    26     9 
    3     6    25    27     9 
    3     6    25    31     9 
    7     6    25    26     9 
    7     6    25    27     9 
    7     6    25    31     9 
    8     6    25    26     9 
    8     6    25    27     9 
    8     6    25    31     9 
    6     8     9    10     9 
    6     8     9    11     9 
    6     8     9    27     9 
    8     9    11    12     9 
    8     9    11    24     9 
   10     9    11    12     9 
   10     9    11    24     9 
   27     9    11    12     9 
   27     9    11    24     9 
    8     9    27    25     9 
    8     9    27    28     9 
    8     9    27    29     9 
   10     9    27    25     9 
   10     9    27    28     9 
   10     9    27    29     9 
   11     9    27    25     9 
   11     9    27    28     9 
   11     9    27    29     9 
    9    11    12    13     9 
    9    11    12    14     9 
   24    11    12    13     9 
   24    11    12    14     9 
    9    11    24    15     9 
    9    11    24    23     9 
   12    11    24    15     9 
   12    11    24    23     9 
   11    12    14    15     9 
   13    12    14    15     9 
   12    14    15    16     9 
   12    14    15    24     9 
   14    15    16    17     9 
   14    15    16    20     9 
   24    15    16    17     9 
   24    15    16    20     9 
   14    15    24    11     9 
   14    15    24    23     9 
   16    15    24    11     9 
   16    15    24    23     9 
   15    16    17    18     9 
   15    16    17    19     9 
   20    16    17    18     9 
   20    16    17    19     9 
   15    16    20    21     9 
   17    16    20    21     9 
   16    20    21    22     9 
   16    20    21    23     9 
   20    21    23    24     9 
   22    21    23    24     9 
   21    23    24    11     9 
   21    23    24    15     9 
    6    25    27     9     9 
    6    25    27    28     9 
    6    25    27    29     9 
   26    25    27     9     9 
   26    25    27    28     9 
   26    25    27    29     9 
   31    25    27     9     9 
   31    25    27    28     9 
   31    25    27    29     9 
    6    25    31    32     9 
   26    25    31    32     9 
   27    25    31    32     9 
    9    27    29    30     9 
   25    27    29    30     9 
   28    27    29    30     9 
   25    31    32    33     9 
   25    31    32    34     9 
   25    31    32    35     9 
   31    32    35    36     9 
   33    32    35    36     9 
   34    32    35    36     9 
   32    35    36    37     9 
   32    35    36    38     9 
   32    35    36    39     9 
   35    36    39    40     9 
   35    36    39    41     9 
   35    36    39    55     9 
   37    36    39    40     9 
   37    36    39    41     9 
   37    36    39    55     9 
   38    36    39    40     9 
   38    36    39    41     9 
   38    36    39    55     9 
   36    39    41    42     9 
   40    39    41    42     9 
   55    39    41    42     9 
   36    39    55    56     9 
   36    39    55    57     9 
   36    39    55    61     9 
   40    39    55    56     9 
   40    39    55    57     9 
   40    39    55    61     9 
   41    39    55    56     9 
   41    39    55    57     9 
   41    39    55    61     9 
   39    41    42    43     9 
   39    41    42    44     9 
   39    41    42    57     9 
   41    42    44    45     9 
   41    42    44    53     9 
   43    42    44    45     9 
   43    42    44    53     9 
   57    42    44    45     9 
   57    42    44    53     9 
   41    42    57    55     9 
   41    42    57    58     9 
   41    42    57    59     9 
   43    42    57    55     9 
   43    42    57    58     9 
   43    42    57    59     9 
   44    42    57    55     9 
   44    42    57    58     9 
   44    42    57    59     9 
   42    44    45    46     9 
   42    44    45    47     9 
   53    44    45    46     9 
   53    44    45    47     9 
   42    44    53    51     9 
   42    44    53    54     9 
   45    44    53    51     9 
   45    44    53    54     9 
   44    45    47    48     9 
   44    45    47    49     9 
   46    45    47    48     9 
   46    45    47    49     9 
   45    47    49    50     9 
   45    47    49    51     9 
   48    47    49    50     9 
   48    47    49    51     9 
   47    49    51    52     9 
   47    49    51    53     9 
   50    49    51    52     9 
   50    49    51    53     9 
   49    51    53    44     9 
   49    51    53    54     9 
   52    51    53    44     9 
   52    51    53    54     9 
   39    55    57    42     9 
   39    55    57    58     9 
   39    55    57    59     9 
   56    55    57    42     9 
   56    55    57    58     9 
   56    55    57    59     9 
   61    55    57    42     9 
   61    55    57    58     9 
   61    55    57    59     9 
   39    55    61    62     9 
   56    55    61    62     9 
   57    55    61    62     9 
   42    57    59    60     9 
   55    57    59    60     9 
   58    57    59    60     9 
   55    61    62    63     9 
   55    61    62    64     9 
   55    61    62    65     9 
   61    62    65    66     9 
   63    62    65    66     9 
   64    62    65    66     9 
   62    65    66    67     9 
   62    65    66    68     9 
   62    65    66    69     9 
   65    66    69    70     9 
   65    66    69    71     9 
   65    66    69    88     9 
   67    66    69    70     9 
   67    66    69    71     9 
   67    66    69    88     9 
   68    66    69    70     9 
   68    66    69    71     9 
   68    66    69    88     9 
   66    69    71    72     9 
   70    69    71    72     9 
   88    69    71    72     9 
   66    69    88    89     9 
   66    69    88    90     9 
   66    69    88    94     9 
   70    69    88    89     9 
   70    69    88    90     9 
   70    69    88    94     9 
   71    69    88    89     9 
   71    69    88    90     9 
   71    69    88    94     9 
   69    71    72    73     9 
   69    71    72    74     9 
   69    71    72    90     9 
   71    72    74    75     9 
   71    72    74    87     9 
   73    72    74    75     9 
   73    72    74    87     9 
   90    72    74    75     9 
   90    72    74    87     9 
   71    72    90    88     9 
   71    72    90    91     9 
   71    72    90    92     9 
   73    72    90    88     9 
   73    72    90    91     9 
   73    72    90    92     9 
   74    72    90    88     9 
   74    72    90    91     9 
   74    72    90    92     9 
   72    74    75    76     9 
   72    74    75    77     9 
   87    74    75    76     9 
   87    74    75    77     9 
   72    74    87    78     9 
   72    74    87    86     9 
   75    74    87    78     9 
   75    74    87    86     9 
   74    75    77    78     9 
   76    75    77    78     9 
   75    77    78    79     9 
   75    77    78    87     9 
   77    78    79    80     9 
   77    78    79    83     9 
   87    78    79    80     9 
   87    78    79    83     9 
   77    78    87    74     9 
   77    78    87    86     9 
   79    78    87    74     9 
   79    78    87    86     9 
   78    79    80    81     9 
   78    79    80    82     9 
   83    79    80    81     9 
   83    79    80    82     9 
   78    79    83    84     9 
   80    79    83    84     9 
   79    83    84    85     9 
   79    83    84    86     9 
   83    84    86    87     9 
   85    84    86    87     9 
   84    86    87    74     9 
   84    86    87    78     9 
   69    88    90    72     9 
   69    88    90    91     9 
   69    88    90    92     9 
   89    88    90    72     9 
   89    88    90    91     9 
   89    88    90    92     9 
   94    88    90    72     9 
   94    88    90    91     9 
   94    88    90    92     9 
   69    88    94    95     9 
   89    88    94    95     9 
   90    88    94    95     9 
   72    90    92    93     9 
   88    90    92    93     9 
   91    90    92    93     9 
   88    94    95    96     9 
   88    94    95    97     9 
   88    94    95    98     9 
   94    95    98    99     9 
   96    95    98    99     9 
   97    95    98    99     9 
   95    98    99   100     9 
   95    98    99   101     9 
   95    98    99   102     9 
   98    99   102   103     9 
   98    99   102   104     9 
   98    99   102   122     9 
  100    99   102   103     9 
  100    99   102   104     9 
  100    99   102   122     9 
  101    99   102   103     9 
  101    99   102   104     9 
  101    99   102   122     9 
   99   102   104   105     9 
  103   102   104   105     9 
  122   102   104   105     9 
   99   102   122   123     9 
   99   102   122   124     9 
   99   102   122   128     9 
  103   102   122   123     9 
  103   102   122   124     9 
  103   102   122   128     9 
  104   102   122   123     9 
  104   102   122   124     9 
  104   102   122   128     9 
  102   104   105   106     9 
  102   104   105   107     9 
  102   104   105   124     9 
  104   105   107   108     9 
  104   105   107   121     9 
  106   105   107   108     9 
  106   105   107   121     9 
  124   105   107   108     9 
  124   105   107   121     9 
  104   105   124   122     9 
  104   105   124   125     9 
  104   105   124   126     9 
  106   105   124   122     9 
  106   105   124   125     9 
  106   105   124   126     9 
  107   105   124   122     9 
  107   105   124   125     9 
  107   105   124   126     9 
  105   107   108   109     9 
  105   107   108   110     9 
  121   107   108   109     9 
  121   107   108   110     9 
  105   107   121   111     9 
  105   107   121   120     9 
  108   107   121   111     9 
  108   107   121   120     9 
  107   108   110   111     9 
  109   108   110   111     9 
  108   110   111   112     9 
  108   110   111   121     9 
  110   111   112   113     9 
  110   111   112   114     9 
  121   111   112   113     9 
  121   111   112   114     9 
  110   111   121   107     9 
  110   111   121   120     9 
  112   111   121   107     9 
  112   111   121   120     9 
  111   112   114   115     9 
  111   112   114   116     9 
  113   112   114   115     9 
  113   112   114   116     9 
  112   114   116   117     9 
  112   114   116   120     9 
  115   114   116   117     9 
  115   114   116   120     9 
  114   116   117   118     9 
  114   116   117   119     9 
  120   116   117   118     9 
  120   116   117   119     9 
  114   116   120   121     9 
  117   116   120   121     9 
  116   120   121   107     9 
  116   120   121   111     9 
  102   122   124   105     9 
  102   122   124   125     9 
  102   122   124   126     9 
  123   122   124   105     9 
  123   122   124   125     9 
  123   122   124   126     9 
  128   122   124   105     9 
  128   122   124   125     9 
  128   122   124   126     9 
  102   122   128   129     9 
  123   122   128   129     9 
  124   122   128   129     9 
  105   124   126   127     9 
  122   124   126   127     9 
  125   124   126   127     9 
  122   128   129   130     9 
  122   128   129   131     9 
  122   128   129   132     9 
  128   129   132   133     9 
  130   129   132   133     9 
  131   129   132   133     9 
  129   132   133   134     9 
  129   132   133   135     9 
  129   132   133   136     9 
  132   133   136   137     9 
  132   133   136   138     9 
  132   133   136   156     9 
  134   133   136   137     9 
  134   133   136   138     9 
  134   133   136   156     9 
  135   133   136   137     9 
  135   133   136   138     9 
  135   133   136   156     9 
  133   136   138   139     9 
  137   136   138   139     9 
  156   136   138   139     9 
  133   136   156   157     9 
  133   136   156   158     9 
  133   136   156   162     9 
  137   136   156   157     9 
  137   136   156   158     9 
  137   136   156   162     9 
  138   136   156   157     9 
  138   136   156   158     9 
  138   136   156   162     9 
  136   138   139   140     9 
  136   138   139   141     9 
  136   138   139   158     9 
  138   139   141   142     9 
  138   139   141   155     9 
  140   139   141   142     9 
  140   139   141   155     9 
  158   139   141   142     9 
  158   139   141   155     9 
  138   139   158   156     9 
  138   139   158   159     9 
  138   139   158   160     9 
  140   139   158   156     9 
  140   139   158   159     9 
  140   139   158   160     9 
  141   139   158   156     9 
  141   139   158   159     9 
  141   139   158   160     9 
  139   141   142   143     9 
  139   141   142   144     9 
  155   141   142   143     9 
  155   141   142   144     9 
  139   141   155   145     9 
  139   141   155   154     9 
  142   141   155   145     9 
  142   141   155   154     9 
  141   142   144   145     9 
  143   142   144   145     9 
  142   144   145   146     9 
  142   144   145   155     9 
  144   145   146   147     9 
  144   145   146   148     9 
  155   145   146   147     9 
  155   145   146   148     9 
  144   145   155   141     9 
  144   145   155   154     9 
  146   145   155   141     9 
  146   145   155   154     9 
  145   146   148   149     9 
  145   146   148   150     9 
  147   146   148   149     9 
  147   146   148   150     9 
  146   148   150   151     9 
  146   148   150   154     9 
  149   148   150   151     9 
  149   148   150   154     9 
  148   150   151   152     9 
  148   150   151   153     9 
  154   150   151   152     9 
  154   150   151   153     9 
  148   150   154   155     9 
  151   150   154   155     9 
  150   154   155   141     9 
  150   154   155   145     9 
  136   156   158   139     9 
  136   156   158   159     9 
  136   156   158   160     9 
  157   156   158   139     9 
  157   156   158   159     9 
  157   156   158   160     9 
  162   156   158   139     9 
  162   156   158   159     9 
  162   156   158   160     9 
  136   156   162   163     9 
  157   156   162   163     9 
  158   156   162   163     9 
  139   158   160   161     9 
  156   158   160   161     9 
  159   158   160   161     9 
  156   162   163   164     9 
  156   162   163   165     9 
  156   162   163   166     9 
  162   163   166   167     9 
  164   163   166   167     9 
  165   163   166   167     9 
  163   166   167   168     9 
  163   166   167   169     9 
  163   166   167   170     9 
  166   167   170   171     9 
  166   167   170   172     9 
  166   167   170   189     9 
  168   167   170   171     9 
  168   167   170   172     9 
  168   167   170   189     9 
  169   167   170   171     9 
  169   167   170   172     9 
  169   167   170   189     9 
  167   170   172   173     9 
  171   170   172   173     9 
  189   170   172   173     9 
  167   170   189   190     9 
  167   170   189   191     9 
  167   170   189   195     9 
  171   170   189   190     9 
  171   170   189   191     9 
  171   170   189   195     9 
  172   170   189   190     9 
  172   170   189   191     9 
  172   170   189   195     9 
  170   172   173   174     9 
  170   172   173   175     9 
  170   172   173   191     9 
  172   173   175   176     9 
  172   173   175   188     9 
  174   173   175   176     9 
  174   173   175   188     9 
  191   173   175   176     9 
  191   173   175   188     9 
  172   173   191   189     9 
  172   173   191   192     9 
  172   173   191   193     9 
  174   173   191   189     9 
  174   173   191   192     9 
  174   173   191   193     9 
  175   173   191   189     9 
  175   173   191   192     9 
  175   173   191   193     9 
  173   175   176   177     9 
  173   175   176   178     9 
  188   175   176   177     9 
  188   175   176   178     9 
  173   175   188   179     9 
  173   175   188   187     9 
  176   175   188   179     9 
  176   175   188   187     9 
  175   176   178   179     9 
  177   176   178   179     9 
  176   178   179   180     9 
  176   178   179   188     9 
  178   179   180   181     9 
  178   179   180   184     9 
  188   179   180   181     9 
  188   179   180   184     9 
  178   179   188   175     9 
  178   179   188   187     9 
  180   179   188   175     9 
  180   179   188   187     9 
  179   180   181   182     9 
  179   180   181   183     9 
  184   180   181   182     9 
  184   180   181   183     9 
  179   180   184   185     9 
  181   180   184   185     9 
  180   184   185   186     9 
  180   184   185   187     9 
  184   185   187   188     9 
  186   185   187   188     9 
  185   187   188   175     9 
  185   187   188   179     9 
  170   189   191   173     9 
  170   189   191   192     9 
  170   189   191   193     9 
  190   189   191   173     9 
  190   189   191   192     9 
  190   189   191   193     9 
  195   189   191   173     9 
  195   189   191   192     9 
  195   189   191   193     9 
  170   189   195   196     9 
  190   189   195   196     9 
  191   189   195   196     9 
  173   191   193   194     9 
  189   191   193   194     9 
  192   191   193   194     9 
  189   195   196   197     9 
  189   195   196   198     9 
  189   195   196   199     9 
  195   196   199   200     9 
  197   196   199   200     9 
  198   196   199   200     9 
  196   199   200   201     9 
  196   199   200   202     9 
  196   199   200   203     9 
  199   200   203   204     9 
  199   200   203   205     9 
  199   200   203   219     9 
  201   200   203   204     9 
  201   200   203   205     9 
  201   200   203   219     9 
  202   200   203   204     9 
  202   200   203   205     9 
  202   200   203   219     9 
  200   203   205   206     9 
  204   203   205   206     9 
  219   203   205   206     9 
  200   203   219   220     9 
  200   203   219   221     9 
  200   203   219   225     9 
  204   203   219   220     9 
  204   203   219   221     9 
  204   203   219   225     9 
  205   203   219   220     9 
  205   203   219   221     9 
  205   203   219   225     9 
  203   205   206   207     9 
  203   205   206   208     9 
  203   205   206   221     9 
  205   206   208   209     9 
  205   206   208   217     9 
  207   206   208   209     9 
  207   206   208   217     9 
  221   206   208   209     9 
  221   206   208   217     9 
  205   206   221   219     9 
  205   206   221   222     9 
  205   206   221   223     9 
  207   206   221   219     9 
  207   206   221   222     9 
  207   206   221   223     9 
  208   206   221   219     9 
  208   206   221   222     9 
  208   206   221   223     9 
  206   208   209   210     9 
  206   208   209   211     9 
  217   208   209   210     9 
  217   208   209   211     9 
  206   208   217   215     9 
  206   208   217   218     9 
  209   208   217   215     9 
  209   208   217   218     9 
  208   209   211   212     9 
  208   209   211   213     9 
  210   209   211   212     9 
  210   209   211   213     9 
  209   211   213   214     9 
  209   211   213   215     9 
  212   211   213   214     9 
  212   211   213   215     9 
  211   213   215   216     9 
  211   213   215   217     9 
  214   213   215   216     9 
  214   213   215   217     9 
  213   215   217   208     9 
  213   215   217   218     9 
  216   215   217   208     9 
  216   215   217   218     9 
  203   219   221   206     9 
  203   219   221   222     9 
  203   219   221   223     9 
  220   219   221   206     9 
  220   219   221   222     9 
  220   219   221   223     9 
  225   219   221   206     9 
  225   219   221   222     9 
  225   219   221   223     9 
  203   219   225   226     9 
  220   219   225   226     9 
  221   219   225   226     9 
  206   221   223   224     9 
  219   221   223   224     9 
  222   221   223   224     9 
  219   225   226   227     9 
  219   225   226   228     9 
  219   225   226   229     9 
  225   226   229   230     9 
  227   226   229   230     9 
  228   226   229   230     9 
  226   229   230   231     9 
  226   229   230   232     9 
  226   229   230   233     9 
  229   230   233   234     9 
  229   230   233   235     9 
  229   230   233   249     9 
  231   230   233   234     9 
  231   230   233   235     9 
  231   230   233   249     9 
  232   230   233   234     9 
  232   230   233   235     9 
  232   230   233   249     9 
  230   233   235   236     9 
  234   233   235   236     9 
  249   233   235   236     9 
  230   233   249   250     9 
  230   233   249   251     9 
  230   233   249   255     9 
  234   233   249   250     9 
  234   233   249   251     9 
  234   233   249   255     9 
  235   233   249   250     9 
  235   233   249   251     9 
  235   233   249   255     9 
  233   235   236   237     9 
  233   235   236   238     9 
  233   235   236   251     9 
  235   236   238   239     9 
  235   236   238   247     9 
  237   236   238   239     9 
  237   236   238   247     9 
  251   236   238   239     9 
  251   236   238   247     9 
  235   236   251   249     9 
  235   236   251   252     9 
  235   236   251   253     9 
  237   236   251   249     9 
  237   236   251   252     9 
  237   236   251   253     9 
  238   236   251   249     9 
  238   236   251   252     9 
  238   236   251   253     9 
  236   238   239   240     9 
  236   238   239   241     9 
  247   238   239   240     9 
  247   238   239   241     9 
  236   238   247   245     9 
  236   238   247   248     9 
  239   238   247   245     9 
  239   238   247   248     9 
  238   239   241   242     9 
  238   239   241   243     9 
  240   239   241   242     9 
  240   239   241   243     9 
  239   241   243   244     9 
  239   241   243   245     9 
  242   241   243   244     9 
  242   241   243   245     9 
  241   243   245   246     9 
  241   243   245   247     9 
  244   243   245   246     9 
  244   243   245   247     9 
  243   245   247   238     9 
  243   245   247   248     9 
  246   245   247   238     9 
  246   245   247   248     9 
  233   249   251   236     9 
  233   249   251   252     9 
  233   249   251   253     9 
  250   249   251   236     9 
  250   249   251   252     9 
  250   249   251   253     9 
  255   249   251   236     9 
  255   249   251   252     9 
  255   249   251   253     9 
  233   249   255   256     9 
  250   249   255   256     9 
  251   249   255   256     9 
  236   251   253   254     9 
  249   251   253   254     9 
  252   251   253   254     9 
  249   255   256   257     9 
  249   255   256   258     9 
  249   255   256   259     9 
  255   256   259   260     9 
  257   256   259   260     9 
  258   256   259   260     9 
  256   259   260   261     9 
  256   259   260   262     9 
  256   259   260   263     9 
  259   260   263   264     9 
  259   260   263   265     9 
  259   260   263   280     9 
  261   260   263   264     9 
  261   260   263   265     9 
  261   260   263   280     9 
  262   260   263   264     9 
  262   260   263   265     9 
  262   260   263   280     9 
  260   263   265   266     9 
  264   263   265   266     9 
  280   263   265   266     9 
  260   263   280   281     9 
  260   263   280   282     9 
  260   263   280   286     9 
  264   263   280   281     9 
  264   263   280   282     9 
  264   263   280   286     9 
  265   263   280   281     9 
  265   263   280   282     9 
  265   263   280   286     9 
  263   265   266   267     9 
  263   265   266   268     9 
  263   265   266   282     9 
  265   266   268   269     9 
  265   266   268   278     9 
  267   266   268   269     9 
  267   266   268   278     9 
  282   266   268   269     9 
  282   266   268   278     9 
  265   266   282   280     9 
  265   266   282   283     9 
  265   266   282   284     9 
  267   266   282   280     9 
  267   266   282   283     9 
  267   266   282   284     9 
  268   266   282   280     9 
  268   266   282   283     9 
  268   266   282   284     9 
  266   268   269   270     9 
  266   268   269   271     9 
  278   268   269   270     9 
  278   268   269   271     9 
  266   268   278   277     9 
  266   268   278   279     9 
  269   268   278   277     9 
  269   268   278   279     9 
  268   269   271   272     9 
  268   269   271   273     9 
  270   269   271   272     9 
  270   269   271   273     9 
  269   271   273   274     9 
  269   271   273   277     9 
  272   271   273   274     9 
  272   271   273   277     9 
  271   273   274   275     9 
  271   273   274   276     9 
  277   273   274   275     9 
  277   273   274   276     9 
  271   273   277   278     9 
  274   273   277   278     9 
  273   277   278   268     9 
  273   277   278   279     9 
  263   280   282   266     9 
  263   280   282   283     9 
  263   280   282   284     9 
  281   280   282   266     9 
  281   280   282   283     9 
  281   280   282   284     9 
  286   280   282   266     9 
  286   280   282   283     9 
  286   280   282   284     9 
  263   280   286   287     9 
  281   280   286   287     9 
  282   280   286   287     9 
  266   282   284   285     9 
  280   282   284   285     9 
  283   282   284   285     9 
  280   286   287   288     9 
  280   286   287   289     9 
  280   286   287   290     9 
  286   287   290   291     9 
  288   287   290   291     9 
  289   287   290   291     9 
  287   290   291   292     9 
  287   290   291   293     9 
  287   290   291   294     9 
  290   291   294   295     9 
  290   291   294   296     9 
  290   291   294   313     9 
  292   291   294   295     9 
  292   291   294   296     9 
  292   291   294   313     9 
  293   291   294   295     9 
  293   291   294   296     9 
  293   291   294   313     9 
  291   294   296   297     9 
  295   294   296   297     9 
  313   294   296   297     9 
  291   294   313   314     9 
  291   294   313   315     9 
  291   294   313   319     9 
  295   294   313   314     9 
  295   294   313   315     9 
  295   294   313   319     9 
  296   294   313   314     9 
  296   294   313   315     9 
  296   294   313   319     9 
  294   296   297   298     9 
  294   296   297   299     9 
  294   296   297   315     9 
  296   297   299   300     9 
  296   297   299   312     9 
  298   297   299   300     9 
  298   297   299   312     9 
  315   297   299   300     9 
  315   297   299   312     9 
  296   297   315   313     9 
  296   297   315   316     9 
  296   297   315   317     9 
  298   297   315   313     9 
  298   297   315   316     9 
  298   297   315   317     9 
  299   297   315   313     9 
  299   297   315   316     9 
  299   297   315   317     9 
  297   299   300   301     9 
  297   299   300   302     9 
  312   299   300   301     9 
  312   299   300   302     9 
  297   299   312   303     9 
  297   299   312   311     9 
  300   299   312   303     9 
  300   299   312   311     9 
  299   300   302   303     9 
  301   300   302   303     9 
  300   302   303   304     9 
  300   302   303   312     9 
  302   303   304   305     9 
  302   303   304   308     9 
  312   303   304   305     9 
  312   303   304   308     9 
  302   303   312   299     9 
  302   303   312   311     9 
  304   303   312   299     9 
  304   303   312   311     9 
  303   304   305   306     9 
  303   304   305   307     9 
  308   304   305   306     9 
  308   304   305   307     9 
  303   304   308   309     9 
  305   304   308   309     9 
  304   308   309   310     9 
  304   308   309   311     9 
  308   309   311   312     9 
  310   309   311   312     9 
  309   311   312   299     9 
  309   311   312   303     9 
  294   313   315   297     9 
  294   313   315   316     9 
  294   313   315   317     9 
  314   313   315   297     9 
  314   313   315   316     9 
  314   313   315   317     9 
  319   313   315   297     9 
  319   313   315   316     9 
  319   313   315   317     9 
  294   313   319   320     9 
  314   313   319   320     9 
  315   313   319   320     9 
  297   315   317   318     9 
  313   315   317   318     9 
  316   315   317   318     9 
  313   319   320   321     9 
  313   319   320   322     9 
  313   319   320   323     9 
  319   320   323   324     9 
  321   320   323   324     9 
  322   320   323   324     9 
  320   323   324   325     9 
  320   323   324   326     9 
  320   323   324   327     9 
  323   324   327   328     9 
  323   324   327   329     9 
  323   324   327   343     9 
  325   324   327   328     9 
  325   324   327   329     9 
  325   324   327   343     9 
  326   324   327   328     9 
  326   324   327   329     9 
  326   324   327   343     9 
  324   327   329   330     9 
  328   327   329   330     9 
  343   327   329   330     9 
  324   327   343   344     9 
  324   327   343   345     9 
  324   327   343   349     9 
  328   327   343   344     9 
  328   327   343   345     9 
  328   327   343   349     9 
  329   327   343   344     9 
  329   327   343   345     9 
  329   327   343   349     9 
  327   329   330   331     9 
  327   329   330   332     9 
  327   329   330   345     9 
  329   330   332   333     9 
  329   330   332   341     9 
  331   330   332   333     9 
  331   330   332   341     9 
  345   330   332   333     9 
  345   330   332   341     9 
  329   330   345   343     9 
  329   330   345   346     9 
  329   330   345   347     9 
  331   330   345   343     9 
  331   330   345   346     9 
  331   330   345   347     9 
  332   330   345   343     9 
  332   330   345   346     9 
  332   330   345   347     9 
  330   332   333   334     9 
  330   332   333   335     9 
  341   332   333   334     9 
  341   332   333   335     9 
  330   332   341   339     9 
  330   332   341   342     9 
  333   332   341   339     9 
  333   332   341   342     9 
  332   333   335   336     9 
  332   333   335   337     9 
  334   333   335   336     9 
  334   333   335   337     9 
  333   335   337   338     9 
  333   335   337   339     9 
  336   335   337   338     9 
  336   335   337   339     9 
  335   337   339   340     9 
  335   337   339   341     9 
  338   337   339   340     9 
  338   337   339   341     9 
  337   339   341   332     9 
  337   339   341   342     9 
  340   339   341   332     9 
  340   339   341   342     9 
  327   343   345   330     9 
  327   343   345   346     9 
  327   343   345   347     9 
  344   343   345   330     9 
  344   343   345   346     9 
  344   343   345   347     9 
  349   343   345   330     9 
  349   343   345   346     9 
  349   343   345   347     9 
  327   343   349   350     9 
  344   343   349   350     9 
  345   343   349   350     9 
  330   345   347   348     9 
  343   345   347   348     9 
  346   345   347   348     9 
  343   349   350   351     9 
  343   349   350   352     9 
  343   349   350   353     9 
  349   350   353   354     9 
  351   350   353   354     9 
  352   350   353   354     9 
  350   353   354   355     9 
  350   353   354   356     9 
  350   353   354   357     9 
  353   354   357   358     9 
  353   354   357   359     9 
  353   354   357   376     9 
  355   354   357   358     9 
  355   354   357   359     9 
  355   354   357   376     9 
  356   354   357   358     9 
  356   354   357   359     9 
  356   354   357   376     9 
  354   357   359   360     9 
  358   357   359   360     9 
  376   357   359   360     9 
  354   357   376   377     9 
  354   357   376   378     9 
  354   357   376   382     9 
  358   357   376   377     9 
  358   357   376   378     9 
  358   357   376   382     9 
  359   357   376   377     9 
  359   357   376   378     9 
  359   357   376   382     9 
  357   359   360   361     9 
  357   359   360   362     9 
  357   359   360   378     9 
  359   360   362   363     9 
  359   360   362   375     9 
  361   360   362   363     9 
  361   360   362   375     9 
  378   360   362   363     9 
  378   360   362   375     9 
  359   360   378   376     9 
  359   360   378   379     9 
  359   360   378   380     9 
  361   360   378   376     9 
  361   360   378   379     9 
  361   360   378   380     9 
  362   360   378   376     9 
  362   360   378   379     9 
  362   360   378   380     9 
  360   362   363   364     9 
  360   362   363   365     9 
  375   362   363   364     9 
  375   362   363   365     9 
  360   362   375   366     9 
  360   362   375   374     9 
  363   362   375   366     9 
  363   362   375   374     9 
  362   363   365   366     9 
  364   363   365   366     9 
  363   365   366   367     9 
  363   365   366   375     9 
  365   366   367   368     9 
  365   366   367   371     9 
  375   366   367   368     9 
  375   366   367   371     9 
  365   366   375   362     9 
  365   366   375   374     9 
  367   366   375   362     9 
  367   366   375   374     9 
  366   367   368   369     9 
  366   367   368   370     9 
  371   367   368   369     9 
  371   367   368   370     9 
  366   367   371   372     9 
  368   367   371   372     9 
  367   371   372   373     9 
  367   371   372   374     9 
  371   372   374   375     9 
  373   372   374   375     9 
  372   374   375   362     9 
  372   374   375   366     9 
  357   376   378   360     9 
  357   376   378   379     9 
  357   376   378   380     9 
  377   376   378   360     9 
  377   376   378   379     9 
  377   376   378   380     9 
  382   376   378   360     9 
  382   376   378   379     9 
  382   376   378   380     9 
  357   376   382   383     9 
  377   376   382   383     9 
  378   376   382   383     9 
  360   378   380   381     9 
  376   378   380   381     9 
  379   378   380   381     9 
  376   382   383   384     9 
  376   382   383   385     9 
  376   382   383   386     9 
  382   383   386   387     9 
  384   383   386   387     9 
  385   383   386   387     9 
  383   386   387   388     9 
  383   386   387   389     9 
  383   386   387   390     9 
  386   387   390   391     9 
  386   387   390   392     9 
  386   387   390   406     9 
  388   387   390   391     9 
  388   387   390   392     9 
  388   387   390   406     9 
  389   387   390   391     9 
  389   387   390   392     9 
  389   387   390   406     9 
  387   390   392   393     9 
  391   390   392   393     9 
  406   390   392   393     9 
  387   390   406   407     9 
  387   390   406   408     9 
  387   390   406   412     9 
  391   390   406   407     9 
  391   390   406   408     9 
  391   390   406   412     9 
  392   390   406   407     9 
  392   390   406   408     9 
  392   390   406   412     9 
  390   392   393   394     9 
  390   392   393   395     9 
  390   392   393   408     9 
  392   393   395   396     9 
  392   393   395   404     9 
  394   393   395   396     9 
  394   393   395   404     9 
  408   393   395   396     9 
  408   393   395   404     9 
  392   393   408   406     9 
  392   393   408   409     9 
  392   393   408   410     9 
  394   393   408   406     9 
  394   393   408   409     9 
  394   393   408   410     9 
  395   393   408   406     9 
  395   393   408   409     9 
  395   393   408   410     9 
  393   395   396   397     9 
  393   395   396   398     9 
  404   395   396   397     9 
  404   395   396   398     9 
  393   395   404   402     9 
  393   395   404   405     9 
  396   395   404   402     9 
  396   395   404   405     9 
  395   396   398   399     9 
  395   396   398   400     9 
  397   396   398   399     9 
  397   396   398   400     9 
  396   398   400   401     9 
  396   398   400   402     9 
  399   398   400   401     9 
  399   398   400   402     9 
  398   400   402   403     9 
  398   400   402   404     9 
  401   400   402   403     9 
  401   400   402   404     9 
  400   402   404   395     9 
  400   402   404   405     9 
  403   402   404   395     9 
  403   402   404   405     9 
  390   406   408   393     9 
  390   406   408   409     9 
  390   406   408   410     9 
  407   406   408   393     9 
  407   406   408   409     9 
  407   406   408   410     9 
  412   406   408   393     9 
  412   406   408   409     9 
  412   406   408   410     9 
  390   406   412   413     9 
  407   406   412   413     9 
  408   406   412   413     9 
  393   408   410   411     9 
  406   408   410   411     9 
  409   408   410   411     9 
  406   412   413   414     9 
  406   412   413   415     9 
  406   412   413   416     9 
  412   413   416   417     9 
  414   413   416   417     9 
  415   413   416   417     9 
  413   416   417   418     9 
  413   416   417   419     9 
  413   416   417   420     9 
  416   417   420   421     9 
  416   417   420   422     9 
  416   417   420   436     9 
  418   417   420   421     9 
  418   417   420   422     9 
  418   417   420   436     9 
  419   417   420   421     9 
  419   417   420   422     9 
  419   417   420   436     9 
  417   420   422   423     9 
  421   420   422   423     9 
  436   420   422   423     9 
  417   420   436   437     9 
  417   420   436   438     9 
  417   420   436   442     9 
  421   420   436   437     9 
  421   420   436   438     9 
  421   420   436   442     9 
  422   420   436   437     9 
  422   420   436   438     9 
  422   420   436   442     9 
  420   422   423   424     9 
  420   422   423   425     9 
  420   422   423   438     9 
  422   423   425   426     9 
  422   423   425   434     9 
  424   423   425   426     9 
  424   423   425   434     9 
  438   423   425   426     9 
  438   423   425   434     9 
  422   423   438   436     9 
  422   423   438   439     9 
  422   423   438   440     9 
  424   423   438   436     9 
  424   423   438   439     9 
  424   423   438   440     9 
  425   423   438   436     9 
  425   423   438   439     9 
  425   423   438   440     9 
  423   425   426   427     9 
  423   425   426   428     9 
  434   425   426   427     9 
  434   425   426   428     9 
  423   425   434   432     9 
  423   425   434   435     9 
  426   425   434   432     9 
  426   425   434   435     9 
  425   426   428   429     9 
  425   426   428   430     9 
  427   426   428   429     9 
  427   426   428   430     9 
  426   428   430   431     9 
  426   428   430   432     9 
  429   428   430   431     9 
  429   428   430   432     9 
  428   430   432   433     9 
  428   430   432   434     9 
  431   430   432   433     9 
  431   430   432   434     9 
  430   432   434   425     9 
  430   432   434   435     9 
  433   432   434   425     9 
  433   432   434   435     9 
  420   436   438   423     9 
  420   436   438   439     9 
  420   436   438   440     9 
  437   436   438   423     9 
  437   436   438   439     9 
  437   436   438   440     9 
  442   436   438   423     9 
  442   436   438   439     9 
  442   436   438   440     9 
  420   436   442   443     9 
  437   436   442   443     9 
  438   436   442   443     9 
  423   438   440   441     9 
  436   438   440   441     9 
  439   438   440   441     9 
  436   442   443   444     9 
  436   442   443   445     9 
  436   442   443   446     9 
  442   443   446   447     9 
  444   443   446   447     9 
  445   443   446   447     9 
  443   446   447   448     9 
  443   446   447   449     9 
  443   446   447   450     9 
  446   447   450   451     9 
  446   447   450   452     9 
  446   447   450   469     9 
  448   447   450   451     9 
  448   447   450   452     9 
  448   447   450   469     9 
  449   447   450   451     9 
  449   447   450   452     9 
  449   447   450   469     9 
  447   450   452   453     9 
  451   450   452   453     9 
  469   450   452   453     9 
  447   450   469   470     9 
  447   450   469   471     9 
  447   450   469   475     9 
  451   450   469   470     9 
  451   450   469   471     9 
  451   450   469   475     9 
  452   450   469   470     9 
  452   450   469   471     9 
  452   450   469   475     9 
  450   452   453   454     9 
  450   452   453   455     9 
  450   452   453   471     9 
  452   453   455   456     9 
  452   453   455   468     9 
  454   453   455   456     9 
  454   453   455   468     9 
  471   453   455   456     9 
  471   453   455   468     9 
  452   453   471   469     9 
  452   453   471   472     9 
  452   453   471   473     9 
  454   453   471   469     9 
  454   453   471   472     9 
  454   453   471   473     9 
  455   453   471   469     9 
  455   453   471   472     9 
  455   453   471   473     9 
  453   455   456   457     9 
  453   455   456   458     9 
  468   455   456   457     9 
  468   455   456   458     9 
  453   455   468   459     9 
  453   455   468   467     9 
  456   455   468   459     9 
  456   455   468   467     9 
  455   456   458   459     9 
  457   456   458   459     9 
  456   458   459   460     9 
  456   458   459   468     9 
  458   459   460   461     9 
  458   459   460   464     9 
  468   459   460   461     9 
  468   459   460   464     9 
  458   459   468   455     9 
  458   459   468   467     9 
  460   459   468   455     9 
  460   459   468   467     9 
  459   460   461   462     9 
  459   460   461   463     9 
  464   460   461   462     9 
  464   460   461   463     9 
  459   460   464   465     9 
  461   460   464   465     9 
  460   464   465   466     9 
  460   464   465   467     9 
  464   465   467   468     9 
  466   465   467   468     9 
  465   467   468   455     9 
  465   467   468   459     9 
  450   469   471   453     9 
  450   469   471   472     9 
  450   469   471   473     9 
  470   469   471   453     9 
  470   469   471   472     9 
  470   469   471   473     9 
  475   469   471   453     9 
  475   469   471   472     9 
  475   469   471   473     9 
  450   469   475   476     9 
  470   469   475   476     9 
  471   469   475   476     9 
  453   471   473   474     9 
  469   471   473   474     9 
  472   471   473   474     9 
  469   475   476   477     9 
  469   475   476   478     9 
  469   475   476   479     9 
  475   476   479   480     9 
  477   476   479   480     9 
  478   476   479   480     9 
  476   479   480   481     9 
  476   479   480   482     9 
  476   479   480   483     9 
  479   480   483   484     9 
  479   480   483   485     9 
  479   480   483   503     9 
  481   480   483   484     9 
  481   480   483   485     9 
  481   480   483   503     9 
  482   480   483   484     9 
  482   480   483   485     9 
  482   480   483   503     9 
  480   483   485   486     9 
  484   483   485   486     9 
  503   483   485   486     9 
  480   483   503   504     9 
  480   483   503   505     9 
  480   483   503   509     9 
  484   483   503   504     9 
  484   483   503   505     9 
  484   483   503   509     9 
  485   483   503   504     9 
  485   483   503   505     9 
  485   483   503   509     9 
  483   485   486   487     9 
  483   485   486   488     9 
  483   485   486   505     9 
  485   486   488   489     9 
  485   486   488   502     9 
  487   486   488   489     9 
  487   486   488   502     9 
  505   486   488   489     9 
  505   486   488   502     9 
  485   486   505   503     9 
  485   486   505   506     9 
  485   486   505   507     9 
  487   486   505   503     9 
  487   486   505   506     9 
  487   486   505   507     9 
  488   486   505   503     9 
  488   486   505   506     9 
  488   486   505   507     9 
  486   488   489   490     9 
  486   488   489   491     9 
  502   488   489   490     9 
  502   488   489   491     9 
  486   488   502   492     9 
  486   488   502   501     9 
  489   488   502   492     9 
  489   488   502   501     9 
  488   489   491   492     9 
  490   489   491   492     9 
  489   491   492   493     9 
  489   491   492   502     9 
  491   492   493   494     9 
  491   492   493   495     9 
  502   492   493   494     9 
  502   492   493   495     9 
  491   492   502   488     9 
  491   492   502   501     9 
  493   492   502   488     9 
  493   492   502   501     9 
  492   493   495   496     9 
  492   493   495   497     9 
  494   493   495   496     9 
  494   493   495   497     9 
  493   495   497   498     9 
  493   495   497   501     9 
  496   495   497   498     9 
  496   495   497   501     9 
  495   497   498   499     9 
  495   497   498   500     9 
  501   497   498   499     9 
  501   497   498   500     9 
  495   497   501   502     9 
  498   497   501   502     9 
  497   501   502   488     9 
  497   501   502   492     9 
  483   503   505   486     9 
  483   503   505   506     9 
  483   503   505   507     9 
  504   503   505   486     9 
  504   503   505   506     9 
  504   503   505   507     9 
  509   503   505   486     9 
  509   503   505   506     9 
  509   503   505   507     9 
  483   503   509   510     9 
  504   503   509   510     9 
  505   503   509   510     9 
  486   505   507   508     9 
  503   505   507   508     9 
  506   505   507   508     9 
  503   509   510   511     9 
  503   509   510   512     9 
  503   509   510   513     9 
  509   510   513   514     9 
  511   510   513   514     9 
  512   510   513   514     9 
  510   513   514   515     9 
  510   513   514   516     9 
  510   513   514   517     9 
  513   514   517   518     9 
  513   514   517   519     9 
  513   514   517   537     9 
  515   514   517   518     9 
  515   514   517   519     9 
  515   514   517   537     9 
  516   514   517   518     9 
  516   514   517   519     9 
  516   514   517   537     9 
  514   517   519   520     9 
  518   517   519   520     9 
  537   517   519   520     9 
  514   517   537   538     9 
  514   517   537   539     9 
  514   517   537   543     9 
  518   517   537   538     9 
  518   517   537   539     9 
  518   517   537   543     9 
  519   517   537   538     9 
  519   517   537   539     9 
  519   517   537   543     9 
  517   519   520   521     9 
  517   519   520   522     9 
  517   519   520   539     9 
  519   520   522   523     9 
  519   520   522   536     9 
  521   520   522   523     9 
  521   520   522   536     9 
  539   520   522   523     9 
  539   520   522   536     9 
  519   520   539   537     9 
  519   520   539   540     9 
  519   520   539   541     9 
  521   520   539   537     9 
  521   520   539   540     9 
  521   520   539   541     9 
  522   520   539   537     9 
  522   520   539   540     9 
  522   520   539   541     9 
  520   522   523   524     9 
  520   522   523   525     9 
  536   522   523   524     9 
  536   522   523   525     9 
  520   522   536   526     9 
  520   522   536   535     9 
  523   522   536   526     9 
  523   522   536   535     9 
  522   523   525   526     9 
  524   523   525   526     9 
  523   525   526   527     9 
  523   525   526   536     9 
  525   526   527   528     9 
  525   526   527   529     9 
  536   526   527   528     9 
  536   526   527   529     9 
  525   526   536   522     9 
  525   526   536   535     9 
  527   526   536   522     9 
  527   526   536   535     9 
  526   527   529   530     9 
  526   527   529   531     9 
  528   527   529   530     9 
  528   527   529   531     9 
  527   529   531   532     9 
  527   529   531   535     9 
  530   529   531   532     9 
  530   529   531   535     9 
  529   531   532   533     9 
  529   531   532   534     9 
  535   531   532   533     9 
  535   531   532   534     9 
  529   531   535   536     9 
  532   531   535   536     9 
  531   535   536   522     9 
  531   535   536   526     9 
  517   537   539   520     9 
  517   537   539   540     9 
  517   537   539   541     9 
  538   537   539   520     9 
  538   537   539   540     9 
  538   537   539   541     9 
  543   537   539   520     9 
  543   537   539   540     9 
  543   537   539   541     9 
  517   537   543   544     9 
  538   537   543   544     9 
  539   537   543   544     9 
  520   539   541   542     9 
  537   539   541   542     9 
  540   539   541   542     9 
  537   543   544   545     9 
  537   543   544   546     9 
  537   543   544   547     9 
  543   544   547   548     9 
  545   544   547   548     9 
  546   544   547   548     9 
  544   547   548   549     9 
  544   547   548   550     9 
  544   547   548   551     9 
  547   548   551   552     9 
  547   548   551   553     9 
  547   548   551   570     9 
  549   548   551   552     9 
  549   548   551   553     9 
  549   548   551   570     9 
  550   548   551   552     9 
  550   548   551   553     9 
  550   548   551   570     9 
  548   551   553   554     9 
  552   551   553   554     9 
  570   551   553   554     9 
  548   551   570   571     9 
  548   551   570   572     9 
  548   551   570   576     9 
  552   551   570   571     9 
  552   551   570   572     9 
  552   551   570   576     9 
  553   551   570   571     9 
  553   551   570   572     9 
  553   551   570   576     9 
  551   553   554   555     9 
  551   553   554   556     9 
  551   553   554   572     9 
  553   554   556   557     9 
  553   554   556   569     9 
  555   554   556   557     9 
  555   554   556   569     9 
  572   554   556   557     9 
  572   554   556   569     9 
  553   554   572   570     9 
  553   554   572   573     9 
  553   554   572   574     9 
  555   554   572   570     9 
  555   554   572   573     9 
  555   554   572   574     9 
  556   554   572   570     9 
  556   554   572   573     9 
  556   554   572   574     9 
  554   556   557   558     9 
  554   556   557   559     9 
  569   556   557   558     9 
  569   556   557   559     9 
  554   556   569   560     9 
  554   556   569   568     9 
  557   556   569   560     9 
  557   556   569   568     9 
  556   557   559   560     9 
  558   557   559   560     9 
  557   559   560   561     9 
  557   559   560   569     9 
  559   560   561   562     9 
  559   560   561   565     9 
  569   560   561   562     9 
  569   560   561   565     9 
  559   560   569   556     9 
  559   560   569   568     9 
  561   560   569   556     9 
  561   560   569   568     9 
  560   561   562   563     9 
  560   561   562   564     9 
  565   561   562   563     9 
  565   561   562   564     9 
  560   561   565   566     9 
  562   561   565   566     9 
  561   565   566   567     9 
  561   565   566   568     9 
  565   566   568   569     9 
  567   566   568   569     9 
  566   568   569   556     9 
  566   568   569   560     9 
  551   570   572   554     9 
  551   570   572   573     9 
  551   570   572   574     9 
  571   570   572   554     9 
  571   570   572   573     9 
  571   570   572   574     9 
  576   570   572   554     9 
  576   570   572   573     9 
  576   570   572   574     9 
  551   570   576   577     9 
  571   570   576   577     9 
  572   570   576   577     9 
  554   572   574   575     9 
  570   572   574   575     9 
  573   572   574   575     9 
  570   576   577   578     9 
  570   576   577   579     9 
  570   576   577   580     9 
  576   577   580   581     9 
  578   577   580   581     9 
  579   577   580   581     9 
  577   580   581   582     9 
  577   580   581   583     9 
  577   580   581   584     9 
  580   581   584   585     9 
  580   581   584   586     9 
  580   581   584   604     9 
  582   581   584   585     9 
  582   581   584   586     9 
  582   581   584   604     9 
  583   581   584   585     9 
  583   581   584   586     9 
  583   581   584   604     9 
  581   584   586   587     9 
  585   584   586   587     9 
  604   584   586   587     9 
  581   584   604   605     9 
  581   584   604   606     9 
  581   584   604   610     9 
  585   584   604   605     9 
  585   584   604   606     9 
  585   584   604   610     9 
  586   584   604   605     9 
  586   584   604   606     9 
  586   584   604   610     9 
  584   586   587   588     9 
  584   586   587   589     9 
  584   586   587   606     9 
  586   587   589   590     9 
  586   587   589   603     9 
  588   587   589   590     9 
  588   587   589   603     9 
  606   587   589   590     9 
  606   587   589   603     9 
  586   587   606   604     9 
  586   587   606   607     9 
  586   587   606   608     9 
  588   587   606   604     9 
  588   587   606   607     9 
  588   587   606   608     9 
  589   587   606   604     9 
  589   587   606   607     9 
  589   587   606   608     9 
  587   589   590   591     9 
  587   589   590   592     9 
  603   589   590   591     9 
  603   589   590   592     9 
  587   589   603   593     9 
  587   589   603   602     9 
  590   589   603   593     9 
  590   589   603   602     9 
  589   590   592   593     9 
  591   590   592   593     9 
  590   592   593   594     9 
  590   592   593   603     9 
  592   593   594   595     9 
  592   593   594   596     9 
  603   593   594   595     9 
  603   593   594   596     9 
  592   593   603   589     9 
  592   593   603   602     9 
  594   593   603   589     9 
  594   593   603   602     9 
  593   594   596   597     9 
  593   594   596   598     9 
  595   594   596   597     9 
  595   594   596   598     9 
  594   596   598   599     9 
  594   596   598   602     9 
  597   596   598   599     9 
  597   596   598   602     9 
  596   598   599   600     9 
  596   598   599   601     9 
  602   598   599   600     9 
  602   598   599   601     9 
  596   598   602   603     9 
  599   598   602   603     9 
  598   602   603   589     9 
  598   602   603   593     9 
  584   604   606   587     9 
  584   604   606   607     9 
  584   604   606   608     9 
  605   604   606   587     9 
  605   604   606   607     9 
  605   604   606   608     9 
  610   604   606   587     9 
  610   604   606   607     9 
  610   604   606   608     9 
  584   604   610   611     9 
  605   604   610   611     9 
  606   604   610   611     9 
  587   606   608   609     9 
  604   606   608   609     9 
  607   606   608   609     9 
  604   610   611   612     9 
  604   610   611   613     9 
  604   610   611   614     9 
  610   611   614   615     9 
  612   611   614   615     9 
  613   611   614   615     9 
  611   614   615   616     9 
  611   614   615   617     9 
  611   614   615   618     9 
  614   615   618   619     9 
  614   615   618   620     9 
  614   615   618   637     9 
  616   615   618   619     9 
  616   615   618   620     9 
  616   615   618   637     9 
  617   615   618   619     9 
  617   615   618   620     9 
  617   615   618   637     9 
  615   618   620   621     9 
  619   618   620   621     9 
  637   618   620   621     9 
  615   618   637   638     9 
  615   618   637   639     9 
  615   618   637   643     9 
  619   618   637   638     9 
  619   618   637   639     9 
  619   618   637   643     9 
  620   618   637   638     9 
  620   618   637   639     9 
  620   618   637   643     9 
  618   620   621   622     9 
  618   620   621   623     9 
  618   620   621   639     9 
  620   621   623   624     9 
  620   621   623   636     9 
  622   621   623   624     9 
  622   621   623   636     9 
  639   621   623   624     9 
  639   621   623   636     9 
  620   621   639   637     9 
  620   621   639   640     9 
  620   621   639   641     9 
  622   621   639   637     9 
  622   621   639   640     9 
  622   621   639   641     9 
  623   621   639   637     9 
  623   621   639   640     9 
  623   621   639   641     9 
  621   623   624   625     9 
  621   623   624   626     9 
  636   623   624   625     9 
  636   623   624   626     9 
  621   623   636   627     9 
  621   623   636   635     9 
  624   623   636   627     9 
  624   623   636   635     9 
  623   624   626   627     9 
  625   624   626   627     9 
  624   626   627   628     9 
  624   626   627   636     9 
  626   627   628   629     9 
  626   627   628   632     9 
  636   627   628   629     9 
  636   627   628   632     9 
  626   627   636   623     9 
  626   627   636   635     9 
  628   627   636   623     9 
  628   627   636   635     9 
  627   628   629   630     9 
  627   628   629   631     9 
  632   628   629   630     9 
  632   628   629   631     9 
  627   628   632   633     9 
  629   628   632   633     9 
  628   632   633   634     9 
  628   632   633   635     9 
  632   633   635   636     9 
  634   633   635   636     9 
  633   635   636   623     9 
  633   635   636   627     9 
  618   637   639   621     9 
  618   637   639   640     9 
  618   637   639   641     9 
  638   637   639   621     9 
  638   637   639   640     9 
  638   637   639   641     9 
  643   637   639   621     9 
  643   637   639   640     9 
  643   637   639   641     9 
  618   637   643   644     9 
  638   637   643   644     9 
  639   637   643   644     9 
  621   639   641   642     9 
  637   639   641   642     9 
  640   639   641   642     9 
  637   643   644   645     9 
  637   643   644   646     9 
  637   643   644   647     9 
  643   644   647   648     9 
  645   644   647   648     9 
  646   644   647   648     9 
  644   647   648   649     9 
  644   647   648   650     9 
  644   647   648   651     9 
  647   648   651   652     9 
  647   648   651   653     9 
  647   648   651   667     9 
  649   648   651   652     9 
  649   648   651   653     9 
  649   648   651   667     9 
  650   648   651   652     9 
  650   648   651   653     9 
  650   648   651   667     9 
  648   651   653   654     9 
  652   651   653   654     9 
  667   651   653   654     9 
  648   651   667   668     9 
  648   651   667   669     9 
  648   651   667   673     9 
  652   651   667   668     9 
  652   651   667   669     9 
  652   651   667   673     9 
  653   651   667   668     9 
  653   651   667   669     9 
  653   651   667   673     9 
  651   653   654   655     9 
  651   653   654   656     9 
  651   653   654   669     9 
  653   654   656   657     9 
  653   654   656   665     9 
  655   654   656   657     9 
  655   654   656   665     9 
  669   654   656   657     9 
  669   654   656   665     9 
  653   654   669   667     9 
  653   654   669   670     9 
  653   654   669   671     9 
  655   654   669   667     9 
  655   654   669   670     9 
  655   654   669   671     9 
  656   654   669   667     9 
  656   654   669   670     9 
  656   654   669   671     9 
  654   656   657   658     9 
  654   656   657   659     9 
  665   656   657   658     9 
  665   656   657   659     9 
  654   656   665   663     9 
  654   656   665   666     9 
  657   656   665   663     9 
  657   656   665   666     9 
  656   657   659   660     9 
  656   657   659   661     9 
  658   657   659   660     9 
  658   657   659   661     9 
  657   659   661   662     9 
  657   659   661   663     9 
  660   659   661   662     9 
  660   659   661   663     9 
  659   661   663   664     9 
  659   661   663   665     9 
  662   661   663   664     9 
  662   661   663   665     9 
  661   663   665   656     9 
  661   663   665   666     9 
  664   663   665   656     9 
  664   663   665   666     9 
  651   667   669   654     9 
  651   667   669   670     9 
  651   667   669   671     9 
  668   667   669   654     9 
  668   667   669   670     9 
  668   667   669   671     9 
  673   667   669   654     9 
  673   667   669   670     9 
  673   667   669   671     9 
  651   667   673   674     9 
  668   667   673   674     9 
  669   667   673   674     9 
  654   669   671   672     9 
  667   669   671   672     9 
  670   669   671   672     9 

[ dihedrals ]
;  ai    aj    ak    al funct            c0            c1            c2            c3
    9    11    12    24     4 
   11    14    12    13     4 
   15    17    16    20     4 
   16    18    17    19     4 
   20    23    21    22     4 
   42    44    45    53     4 
   44    47    45    46     4 
   44    51    53    54     4 
   45    49    47    48     4 
   47    51    49    50     4 
   49    53    51    52     4 
   72    74    75    87     4 
   74    77    75    76     4 
   78    80    79    83     4 
   79    81    80    82     4 
   83    86    84    85     4 
  105   107   108   121     4 
  107   110   108   109     4 
  111   114   112   113     4 
  112   116   114   115     4 
  116   118   117   119     4 
  117   114   116   120     4 
  139   141   142   155     4 
  141   144   142   143     4 
  145   148   146   147     4 
  146   150   148   149     4 
  150   152   151   153     4 
  151   148   150   154     4 
  173   175   176   188     4 
  175   178   176   177     4 
  179   181   180   184     4 
  180   182   181   183     4 
  184   187   185   186     4 
  206   208   209   217     4 
  208   211   209   210     4 
  208   215   217   218     4 
  209   213   211   212     4 
  211   215   213   214     4 
  213   217   215   216     4 
  236   238   239   247     4 
  238   241   239   240     4 
  238   245   247   248     4 
  239   243   241   242     4 
  241   245   243   244     4 
  243   247   245   246     4 
  266   268   269   278     4 
  268   271   269   270     4 
  268   277   278   279     4 
  269   273   271   272     4 
  271   274   273   277     4 
  273   275   274   276     4 
  297   299   300   312     4 
  299   302   300   301     4 
  303   305   304   308     4 
  304   306   305   307     4 
  308   311   309   310     4 
  330   332   333   341     4 
  332   335   333   334     4 
  332   339   341   342     4 
  333   337   335   336     4 
  335   339   337   338     4 
  337   341   339   340     4 
  360   362   363   375     4 
  362   365   363   364     4 
  366   368   367   371     4 
  367   369   368   370     4 
  371   374   372   373     4 
  393   395   396   404     4 
  395   398   396   397     4 
  395   402   404   405     4 
  396   400   398   399     4 
  398   402   400   401     4 
  400   404   402   403     4 
  423   425   426   434     4 
  425   428   426   427     4 
  425   432   434   435     4 
  426   430   428   429     4 
  428   432   430   431     4 
  430   434   432   433     4 
  453   455   456   468     4 
  455   458   456   457     4 
  459   461   460   464     4 
  460   462   461   463     4 
  464   467   465   466     4 
  486   488   489   502     4 
  488   491   489   490     4 
  492   495   493   494     4 
  493   497   495   496     4 
  497   499   498   500     4 
  498   495   497   501     4 
  520   522   523   536     4 
  522   525   523   524     4 
  526   529   527   528     4 
  527   531   529   530     4 
  531   533   532   534     4 
  532   529   531   535     4 
  554   556   557   569     4 
  556   559   557   558     4 
  560   562   561   565     4 
  561   563   562   564     4 
  565   568   566   567     4 
  587   589   590   603     4 
  589   592   590   591     4 
  593   596   594   595     4 
  594   598   596   597     4 
  598   600   599   601     4 
  599   596   598   602     4 
  621   623   624   636     4 
  623   626   624   625     4 
  627   629   628   632     4 
  628   630   629   631     4 
  632   635   633   634     4 
  654   656   657   665     4 
  656   659   657   658     4 
  656   663   665   666     4 
  657   661   659   660     4 
  659   663   661   662     4 
  661   665   663   664     4 

; Include Position restraint file
#ifdef POSRES
#include "posre_RNA_chain_B.itp"
#endif

