;
;	File 'topol_RNA_chain_C.itp' was generated
;	By user: unknown (1503634736)
;	On host: ghpc005
;	At date: Fri Oct 18 14:46:44 2024
;
;	This is a include topology file
;
;	Created by:
;	                    :-) GROMACS - gmx pdb2gmx, 2024.2 (-:
;	
;	Executable:   /data/home/mrichte3/gromacs-2024.2/install/bin/gmx
;	Data prefix:  /data/home/mrichte3/gromacs-2024.2/install
;	Working dir:  /data/home/mrichte3/RNASeq/test_alignment/md0
;	Command line:
;	  gmx pdb2gmx -f pdb_with_modification.pdb -o structure_processed.gro -p topol.top -i posre.itp
;	Force field was read from the standard GROMACS share directory.
;

[ moleculetype ]
; Name            nrexcl
RNA_chain_C         3

[ atoms ]
;   nr       type  resnr residue  atom   cgnr     charge       mass  typeB    chargeB      massB
; residue   1 G   rtp RG5  q -0.3
     1         OH      1      G    O5'      1    -0.6223         16
     2         HO      1      G    H5T      2     0.4295      1.008
     3         CT      1      G    C5'      3     0.0558      12.01
     4         H1      1      G   H5'1      4     0.0679      1.008
     5         H1      1      G   H5'2      5     0.0679      1.008
     6         CT      1      G    C4'      6     0.1065      12.01
     7         H1      1      G    H4'      7     0.1174      1.008
     8         OS      1      G    O4'      8    -0.3548         16
     9         CT      1      G    C1'      9     0.0191      12.01
    10         H2      1      G    H1'     10     0.2006      1.008
    11         N*      1      G     N9     11     0.0492      14.01
    12         CK      1      G     C8     12     0.1374      12.01
    13         H5      1      G     H8     13      0.164      1.008
    14         NB      1      G     N7     14    -0.5709      14.01
    15         CB      1      G     C5     15     0.1744      12.01
    16          C      1      G     C6     16      0.477      12.01
    17          O      1      G     O6     17    -0.5597         16
    18         NA      1      G     N1     18    -0.4787      14.01
    19          H      1      G     H1     19     0.3424      1.008
    20         CA      1      G     C2     20     0.7657      12.01
    21         N2      1      G     N2     21    -0.9672      14.01
    22          H      1      G    H21     22     0.4364      1.008
    23          H      1      G    H22     23     0.4364      1.008
    24         NC      1      G     N3     24    -0.6323      14.01
    25         CB      1      G     C4     25     0.1222      12.01
    26         CT      1      G    C3'     26     0.2022      12.01
    27         H1      1      G    H3'     27     0.0615      1.008
    28         CT      1      G    C2'     28      0.067      12.01
    29         H1      1      G   H2'1     29     0.0972      1.008
    30         OH      1      G    O2'     30    -0.6139         16
    31         HO      1      G   HO'2     31     0.4186      1.008
    32         OS      1      G    O3'     32    -0.5246         16   ; qtot -0.3081
; residue   2 U   rtp RU   q -1.0
    33          P      2      U      P     33     1.1662      30.97
    34         O2      2      U    O1P     34     -0.776         16
    35         O2      2      U    O2P     35     -0.776         16
    36         OS      2      U    O5'     36    -0.4989         16
    37         CT      2      U    C5'     37     0.0558      12.01
    38         H1      2      U   H5'1     38     0.0679      1.008
    39         H1      2      U   H5'2     39     0.0679      1.008
    40         CT      2      U    C4'     40     0.1065      12.01
    41         H1      2      U    H4'     41     0.1174      1.008
    42         OS      2      U    O4'     42    -0.3548         16
    43         CT      2      U    C1'     43     0.0674      12.01
    44         H2      2      U    H1'     44     0.1824      1.008
    45         N*      2      U     N1     45     0.0418      14.01
    46         CM      2      U     C6     46    -0.1126      12.01
    47         H4      2      U     H6     47     0.2188      1.008
    48         CM      2      U     C5     48    -0.3635      12.01
    49         HA      2      U     H5     49     0.1811      1.008
    50          C      2      U     C4     50     0.5952      12.01
    51          O      2      U     O4     51    -0.5761         16
    52         NA      2      U     N3     52    -0.3549      14.01
    53          H      2      U     H3     53     0.3154      1.008
    54          C      2      U     C2     54     0.4687      12.01
    55          O      2      U     O2     55    -0.5477         16
    56         CT      2      U    C3'     56     0.2022      12.01
    57         H1      2      U    H3'     57     0.0615      1.008
    58         CT      2      U    C2'     58      0.067      12.01
    59         H1      2      U   H2'1     59     0.0972      1.008
    60         OH      2      U    O2'     60    -0.6139         16
    61         HO      2      U   HO'2     61     0.4186      1.008
    62         OS      2      U    O3'     62    -0.5246         16   ; qtot -1.308
; residue   3 C   rtp RC   q -1.0
    63          P      3      C      P     63     1.1662      30.97
    64         O2      3      C    O1P     64     -0.776         16
    65         O2      3      C    O2P     65     -0.776         16
    66         OS      3      C    O5'     66    -0.4989         16
    67         CT      3      C    C5'     67     0.0558      12.01
    68         H1      3      C   H5'1     68     0.0679      1.008
    69         H1      3      C   H5'2     69     0.0679      1.008
    70         CT      3      C    C4'     70     0.1065      12.01
    71         H1      3      C    H4'     71     0.1174      1.008
    72         OS      3      C    O4'     72    -0.3548         16
    73         CT      3      C    C1'     73     0.0066      12.01
    74         H2      3      C    H1'     74     0.2029      1.008
    75         N*      3      C     N1     75    -0.0484      14.01
    76         CM      3      C     C6     76     0.0053      12.01
    77         H4      3      C     H6     77     0.1958      1.008
    78         CM      3      C     C5     78    -0.5215      12.01
    79         HA      3      C     H5     79     0.1928      1.008
    80         CA      3      C     C4     80     0.8185      12.01
    81         N2      3      C     N4     81     -0.953      14.01
    82          H      3      C    H41     82     0.4234      1.008
    83          H      3      C    H42     83     0.4234      1.008
    84         NC      3      C     N3     84    -0.7584      14.01
    85          C      3      C     C2     85     0.7538      12.01
    86          O      3      C     O2     86    -0.6252         16
    87         CT      3      C    C3'     87     0.2022      12.01
    88         H1      3      C    H3'     88     0.0615      1.008
    89         CT      3      C    C2'     89      0.067      12.01
    90         H1      3      C   H2'1     90     0.0972      1.008
    91         OH      3      C    O2'     91    -0.6139         16
    92         HO      3      C   HO'2     92     0.4186      1.008
    93         OS      3      C    O3'     93    -0.5246         16   ; qtot -2.308
; residue   4 U   rtp RU   q -1.0
    94          P      4      U      P     94     1.1662      30.97
    95         O2      4      U    O1P     95     -0.776         16
    96         O2      4      U    O2P     96     -0.776         16
    97         OS      4      U    O5'     97    -0.4989         16
    98         CT      4      U    C5'     98     0.0558      12.01
    99         H1      4      U   H5'1     99     0.0679      1.008
   100         H1      4      U   H5'2    100     0.0679      1.008
   101         CT      4      U    C4'    101     0.1065      12.01
   102         H1      4      U    H4'    102     0.1174      1.008
   103         OS      4      U    O4'    103    -0.3548         16
   104         CT      4      U    C1'    104     0.0674      12.01
   105         H2      4      U    H1'    105     0.1824      1.008
   106         N*      4      U     N1    106     0.0418      14.01
   107         CM      4      U     C6    107    -0.1126      12.01
   108         H4      4      U     H6    108     0.2188      1.008
   109         CM      4      U     C5    109    -0.3635      12.01
   110         HA      4      U     H5    110     0.1811      1.008
   111          C      4      U     C4    111     0.5952      12.01
   112          O      4      U     O4    112    -0.5761         16
   113         NA      4      U     N3    113    -0.3549      14.01
   114          H      4      U     H3    114     0.3154      1.008
   115          C      4      U     C2    115     0.4687      12.01
   116          O      4      U     O2    116    -0.5477         16
   117         CT      4      U    C3'    117     0.2022      12.01
   118         H1      4      U    H3'    118     0.0615      1.008
   119         CT      4      U    C2'    119      0.067      12.01
   120         H1      4      U   H2'1    120     0.0972      1.008
   121         OH      4      U    O2'    121    -0.6139         16
   122         HO      4      U   HO'2    122     0.4186      1.008
   123         OS      4      U    O3'    123    -0.5246         16   ; qtot -3.308
; residue   5 C   rtp RC   q -1.0
   124          P      5      C      P    124     1.1662      30.97
   125         O2      5      C    O1P    125     -0.776         16
   126         O2      5      C    O2P    126     -0.776         16
   127         OS      5      C    O5'    127    -0.4989         16
   128         CT      5      C    C5'    128     0.0558      12.01
   129         H1      5      C   H5'1    129     0.0679      1.008
   130         H1      5      C   H5'2    130     0.0679      1.008
   131         CT      5      C    C4'    131     0.1065      12.01
   132         H1      5      C    H4'    132     0.1174      1.008
   133         OS      5      C    O4'    133    -0.3548         16
   134         CT      5      C    C1'    134     0.0066      12.01
   135         H2      5      C    H1'    135     0.2029      1.008
   136         N*      5      C     N1    136    -0.0484      14.01
   137         CM      5      C     C6    137     0.0053      12.01
   138         H4      5      C     H6    138     0.1958      1.008
   139         CM      5      C     C5    139    -0.5215      12.01
   140         HA      5      C     H5    140     0.1928      1.008
   141         CA      5      C     C4    141     0.8185      12.01
   142         N2      5      C     N4    142     -0.953      14.01
   143          H      5      C    H41    143     0.4234      1.008
   144          H      5      C    H42    144     0.4234      1.008
   145         NC      5      C     N3    145    -0.7584      14.01
   146          C      5      C     C2    146     0.7538      12.01
   147          O      5      C     O2    147    -0.6252         16
   148         CT      5      C    C3'    148     0.2022      12.01
   149         H1      5      C    H3'    149     0.0615      1.008
   150         CT      5      C    C2'    150      0.067      12.01
   151         H1      5      C   H2'1    151     0.0972      1.008
   152         OH      5      C    O2'    152    -0.6139         16
   153         HO      5      C   HO'2    153     0.4186      1.008
   154         OS      5      C    O3'    154    -0.5246         16   ; qtot -4.308
; residue   6 C   rtp RC   q -1.0
   155          P      6      C      P    155     1.1662      30.97
   156         O2      6      C    O1P    156     -0.776         16
   157         O2      6      C    O2P    157     -0.776         16
   158         OS      6      C    O5'    158    -0.4989         16
   159         CT      6      C    C5'    159     0.0558      12.01
   160         H1      6      C   H5'1    160     0.0679      1.008
   161         H1      6      C   H5'2    161     0.0679      1.008
   162         CT      6      C    C4'    162     0.1065      12.01
   163         H1      6      C    H4'    163     0.1174      1.008
   164         OS      6      C    O4'    164    -0.3548         16
   165         CT      6      C    C1'    165     0.0066      12.01
   166         H2      6      C    H1'    166     0.2029      1.008
   167         N*      6      C     N1    167    -0.0484      14.01
   168         CM      6      C     C6    168     0.0053      12.01
   169         H4      6      C     H6    169     0.1958      1.008
   170         CM      6      C     C5    170    -0.5215      12.01
   171         HA      6      C     H5    171     0.1928      1.008
   172         CA      6      C     C4    172     0.8185      12.01
   173         N2      6      C     N4    173     -0.953      14.01
   174          H      6      C    H41    174     0.4234      1.008
   175          H      6      C    H42    175     0.4234      1.008
   176         NC      6      C     N3    176    -0.7584      14.01
   177          C      6      C     C2    177     0.7538      12.01
   178          O      6      C     O2    178    -0.6252         16
   179         CT      6      C    C3'    179     0.2022      12.01
   180         H1      6      C    H3'    180     0.0615      1.008
   181         CT      6      C    C2'    181      0.067      12.01
   182         H1      6      C   H2'1    182     0.0972      1.008
   183         OH      6      C    O2'    183    -0.6139         16
   184         HO      6      C   HO'2    184     0.4186      1.008
   185         OS      6      C    O3'    185    -0.5246         16   ; qtot -5.308
; residue   7 U   rtp RU   q -1.0
   186          P      7      U      P    186     1.1662      30.97
   187         O2      7      U    O1P    187     -0.776         16
   188         O2      7      U    O2P    188     -0.776         16
   189         OS      7      U    O5'    189    -0.4989         16
   190         CT      7      U    C5'    190     0.0558      12.01
   191         H1      7      U   H5'1    191     0.0679      1.008
   192         H1      7      U   H5'2    192     0.0679      1.008
   193         CT      7      U    C4'    193     0.1065      12.01
   194         H1      7      U    H4'    194     0.1174      1.008
   195         OS      7      U    O4'    195    -0.3548         16
   196         CT      7      U    C1'    196     0.0674      12.01
   197         H2      7      U    H1'    197     0.1824      1.008
   198         N*      7      U     N1    198     0.0418      14.01
   199         CM      7      U     C6    199    -0.1126      12.01
   200         H4      7      U     H6    200     0.2188      1.008
   201         CM      7      U     C5    201    -0.3635      12.01
   202         HA      7      U     H5    202     0.1811      1.008
   203          C      7      U     C4    203     0.5952      12.01
   204          O      7      U     O4    204    -0.5761         16
   205         NA      7      U     N3    205    -0.3549      14.01
   206          H      7      U     H3    206     0.3154      1.008
   207          C      7      U     C2    207     0.4687      12.01
   208          O      7      U     O2    208    -0.5477         16
   209         CT      7      U    C3'    209     0.2022      12.01
   210         H1      7      U    H3'    210     0.0615      1.008
   211         CT      7      U    C2'    211      0.067      12.01
   212         H1      7      U   H2'1    212     0.0972      1.008
   213         OH      7      U    O2'    213    -0.6139         16
   214         HO      7      U   HO'2    214     0.4186      1.008
   215         OS      7      U    O3'    215    -0.5246         16   ; qtot -6.308
; residue   8 A   rtp RA   q -1.0
   216          P      8      A      P    216     1.1662      30.97
   217         O2      8      A    O1P    217     -0.776         16
   218         O2      8      A    O2P    218     -0.776         16
   219         OS      8      A    O5'    219    -0.4989         16
   220         CT      8      A    C5'    220     0.0558      12.01
   221         H1      8      A   H5'1    221     0.0679      1.008
   222         H1      8      A   H5'2    222     0.0679      1.008
   223         CT      8      A    C4'    223     0.1065      12.01
   224         H1      8      A    H4'    224     0.1174      1.008
   225         OS      8      A    O4'    225    -0.3548         16
   226         CT      8      A    C1'    226     0.0394      12.01
   227         H2      8      A    H1'    227     0.2007      1.008
   228         N*      8      A     N9    228    -0.0251      14.01
   229         CK      8      A     C8    229     0.2006      12.01
   230         H5      8      A     H8    230     0.1553      1.008
   231         NB      8      A     N7    231    -0.6073      14.01
   232         CB      8      A     C5    232     0.0515      12.01
   233         CA      8      A     C6    233     0.7009      12.01
   234         N2      8      A     N6    234    -0.9019      14.01
   235          H      8      A    H61    235     0.4115      1.008
   236          H      8      A    H62    236     0.4115      1.008
   237         NC      8      A     N1    237    -0.7615      14.01
   238         CQ      8      A     C2    238     0.5875      12.01
   239         H5      8      A     H2    239     0.0473      1.008
   240         NC      8      A     N3    240    -0.6997      14.01
   241         CB      8      A     C4    241     0.3053      12.01
   242         CT      8      A    C3'    242     0.2022      12.01
   243         H1      8      A    H3'    243     0.0615      1.008
   244         CT      8      A    C2'    244      0.067      12.01
   245         H1      8      A   H2'1    245     0.0972      1.008
   246         OH      8      A    O2'    246    -0.6139         16
   247         HO      8      A   HO'2    247     0.4186      1.008
   248         OS      8      A    O3'    248    -0.5246         16   ; qtot -7.308
; residue   9 A   rtp RA   q -1.0
   249          P      9      A      P    249     1.1662      30.97
   250         O2      9      A    O1P    250     -0.776         16
   251         O2      9      A    O2P    251     -0.776         16
   252         OS      9      A    O5'    252    -0.4989         16
   253         CT      9      A    C5'    253     0.0558      12.01
   254         H1      9      A   H5'1    254     0.0679      1.008
   255         H1      9      A   H5'2    255     0.0679      1.008
   256         CT      9      A    C4'    256     0.1065      12.01
   257         H1      9      A    H4'    257     0.1174      1.008
   258         OS      9      A    O4'    258    -0.3548         16
   259         CT      9      A    C1'    259     0.0394      12.01
   260         H2      9      A    H1'    260     0.2007      1.008
   261         N*      9      A     N9    261    -0.0251      14.01
   262         CK      9      A     C8    262     0.2006      12.01
   263         H5      9      A     H8    263     0.1553      1.008
   264         NB      9      A     N7    264    -0.6073      14.01
   265         CB      9      A     C5    265     0.0515      12.01
   266         CA      9      A     C6    266     0.7009      12.01
   267         N2      9      A     N6    267    -0.9019      14.01
   268          H      9      A    H61    268     0.4115      1.008
   269          H      9      A    H62    269     0.4115      1.008
   270         NC      9      A     N1    270    -0.7615      14.01
   271         CQ      9      A     C2    271     0.5875      12.01
   272         H5      9      A     H2    272     0.0473      1.008
   273         NC      9      A     N3    273    -0.6997      14.01
   274         CB      9      A     C4    274     0.3053      12.01
   275         CT      9      A    C3'    275     0.2022      12.01
   276         H1      9      A    H3'    276     0.0615      1.008
   277         CT      9      A    C2'    277      0.067      12.01
   278         H1      9      A   H2'1    278     0.0972      1.008
   279         OH      9      A    O2'    279    -0.6139         16
   280         HO      9      A   HO'2    280     0.4186      1.008
   281         OS      9      A    O3'    281    -0.5246         16   ; qtot -8.308
; residue  10 U   rtp RU   q -1.0
   282          P     10      U      P    282     1.1662      30.97
   283         O2     10      U    O1P    283     -0.776         16
   284         O2     10      U    O2P    284     -0.776         16
   285         OS     10      U    O5'    285    -0.4989         16
   286         CT     10      U    C5'    286     0.0558      12.01
   287         H1     10      U   H5'1    287     0.0679      1.008
   288         H1     10      U   H5'2    288     0.0679      1.008
   289         CT     10      U    C4'    289     0.1065      12.01
   290         H1     10      U    H4'    290     0.1174      1.008
   291         OS     10      U    O4'    291    -0.3548         16
   292         CT     10      U    C1'    292     0.0674      12.01
   293         H2     10      U    H1'    293     0.1824      1.008
   294         N*     10      U     N1    294     0.0418      14.01
   295         CM     10      U     C6    295    -0.1126      12.01
   296         H4     10      U     H6    296     0.2188      1.008
   297         CM     10      U     C5    297    -0.3635      12.01
   298         HA     10      U     H5    298     0.1811      1.008
   299          C     10      U     C4    299     0.5952      12.01
   300          O     10      U     O4    300    -0.5761         16
   301         NA     10      U     N3    301    -0.3549      14.01
   302          H     10      U     H3    302     0.3154      1.008
   303          C     10      U     C2    303     0.4687      12.01
   304          O     10      U     O2    304    -0.5477         16
   305         CT     10      U    C3'    305     0.2022      12.01
   306         H1     10      U    H3'    306     0.0615      1.008
   307         CT     10      U    C2'    307      0.067      12.01
   308         H1     10      U   H2'1    308     0.0972      1.008
   309         OH     10      U    O2'    309    -0.6139         16
   310         HO     10      U   HO'2    310     0.4186      1.008
   311         OS     10      U    O3'    311    -0.5246         16   ; qtot -9.308
; residue  11 A   rtp RA   q -1.0
   312          P     11      A      P    312     1.1662      30.97
   313         O2     11      A    O1P    313     -0.776         16
   314         O2     11      A    O2P    314     -0.776         16
   315         OS     11      A    O5'    315    -0.4989         16
   316         CT     11      A    C5'    316     0.0558      12.01
   317         H1     11      A   H5'1    317     0.0679      1.008
   318         H1     11      A   H5'2    318     0.0679      1.008
   319         CT     11      A    C4'    319     0.1065      12.01
   320         H1     11      A    H4'    320     0.1174      1.008
   321         OS     11      A    O4'    321    -0.3548         16
   322         CT     11      A    C1'    322     0.0394      12.01
   323         H2     11      A    H1'    323     0.2007      1.008
   324         N*     11      A     N9    324    -0.0251      14.01
   325         CK     11      A     C8    325     0.2006      12.01
   326         H5     11      A     H8    326     0.1553      1.008
   327         NB     11      A     N7    327    -0.6073      14.01
   328         CB     11      A     C5    328     0.0515      12.01
   329         CA     11      A     C6    329     0.7009      12.01
   330         N2     11      A     N6    330    -0.9019      14.01
   331          H     11      A    H61    331     0.4115      1.008
   332          H     11      A    H62    332     0.4115      1.008
   333         NC     11      A     N1    333    -0.7615      14.01
   334         CQ     11      A     C2    334     0.5875      12.01
   335         H5     11      A     H2    335     0.0473      1.008
   336         NC     11      A     N3    336    -0.6997      14.01
   337         CB     11      A     C4    337     0.3053      12.01
   338         CT     11      A    C3'    338     0.2022      12.01
   339         H1     11      A    H3'    339     0.0615      1.008
   340         CT     11      A    C2'    340      0.067      12.01
   341         H1     11      A   H2'1    341     0.0972      1.008
   342         OH     11      A    O2'    342    -0.6139         16
   343         HO     11      A   HO'2    343     0.4186      1.008
   344         OS     11      A    O3'    344    -0.5246         16   ; qtot -10.31
; residue  12 U   rtp RU   q -1.0
   345          P     12      U      P    345     1.1662      30.97
   346         O2     12      U    O1P    346     -0.776         16
   347         O2     12      U    O2P    347     -0.776         16
   348         OS     12      U    O5'    348    -0.4989         16
   349         CT     12      U    C5'    349     0.0558      12.01
   350         H1     12      U   H5'1    350     0.0679      1.008
   351         H1     12      U   H5'2    351     0.0679      1.008
   352         CT     12      U    C4'    352     0.1065      12.01
   353         H1     12      U    H4'    353     0.1174      1.008
   354         OS     12      U    O4'    354    -0.3548         16
   355         CT     12      U    C1'    355     0.0674      12.01
   356         H2     12      U    H1'    356     0.1824      1.008
   357         N*     12      U     N1    357     0.0418      14.01
   358         CM     12      U     C6    358    -0.1126      12.01
   359         H4     12      U     H6    359     0.2188      1.008
   360         CM     12      U     C5    360    -0.3635      12.01
   361         HA     12      U     H5    361     0.1811      1.008
   362          C     12      U     C4    362     0.5952      12.01
   363          O     12      U     O4    363    -0.5761         16
   364         NA     12      U     N3    364    -0.3549      14.01
   365          H     12      U     H3    365     0.3154      1.008
   366          C     12      U     C2    366     0.4687      12.01
   367          O     12      U     O2    367    -0.5477         16
   368         CT     12      U    C3'    368     0.2022      12.01
   369         H1     12      U    H3'    369     0.0615      1.008
   370         CT     12      U    C2'    370      0.067      12.01
   371         H1     12      U   H2'1    371     0.0972      1.008
   372         OH     12      U    O2'    372    -0.6139         16
   373         HO     12      U   HO'2    373     0.4186      1.008
   374         OS     12      U    O3'    374    -0.5246         16   ; qtot -11.31
; residue  13 G   rtp RG   q -1.0
   375          P     13      G      P    375     1.1662      30.97
   376         O2     13      G    O1P    376     -0.776         16
   377         O2     13      G    O2P    377     -0.776         16
   378         OS     13      G    O5'    378    -0.4989         16
   379         CT     13      G    C5'    379     0.0558      12.01
   380         H1     13      G   H5'1    380     0.0679      1.008
   381         H1     13      G   H5'2    381     0.0679      1.008
   382         CT     13      G    C4'    382     0.1065      12.01
   383         H1     13      G    H4'    383     0.1174      1.008
   384         OS     13      G    O4'    384    -0.3548         16
   385         CT     13      G    C1'    385     0.0191      12.01
   386         H2     13      G    H1'    386     0.2006      1.008
   387         N*     13      G     N9    387     0.0492      14.01
   388         CK     13      G     C8    388     0.1374      12.01
   389         H5     13      G     H8    389      0.164      1.008
   390         NB     13      G     N7    390    -0.5709      14.01
   391         CB     13      G     C5    391     0.1744      12.01
   392          C     13      G     C6    392      0.477      12.01
   393          O     13      G     O6    393    -0.5597         16
   394         NA     13      G     N1    394    -0.4787      14.01
   395          H     13      G     H1    395     0.3424      1.008
   396         CA     13      G     C2    396     0.7657      12.01
   397         N2     13      G     N2    397    -0.9672      14.01
   398          H     13      G    H21    398     0.4364      1.008
   399          H     13      G    H22    399     0.4364      1.008
   400         NC     13      G     N3    400    -0.6323      14.01
   401         CB     13      G     C4    401     0.1222      12.01
   402         CT     13      G    C3'    402     0.2022      12.01
   403         H1     13      G    H3'    403     0.0615      1.008
   404         CT     13      G    C2'    404      0.067      12.01
   405         H1     13      G   H2'1    405     0.0972      1.008
   406         OH     13      G    O2'    406    -0.6139         16
   407         HO     13      G   HO'2    407     0.4186      1.008
   408         OS     13      G    O3'    408    -0.5246         16   ; qtot -12.31
; residue  14 A   rtp RA   q -1.0
   409          P     14      A      P    409     1.1662      30.97
   410         O2     14      A    O1P    410     -0.776         16
   411         O2     14      A    O2P    411     -0.776         16
   412         OS     14      A    O5'    412    -0.4989         16
   413         CT     14      A    C5'    413     0.0558      12.01
   414         H1     14      A   H5'1    414     0.0679      1.008
   415         H1     14      A   H5'2    415     0.0679      1.008
   416         CT     14      A    C4'    416     0.1065      12.01
   417         H1     14      A    H4'    417     0.1174      1.008
   418         OS     14      A    O4'    418    -0.3548         16
   419         CT     14      A    C1'    419     0.0394      12.01
   420         H2     14      A    H1'    420     0.2007      1.008
   421         N*     14      A     N9    421    -0.0251      14.01
   422         CK     14      A     C8    422     0.2006      12.01
   423         H5     14      A     H8    423     0.1553      1.008
   424         NB     14      A     N7    424    -0.6073      14.01
   425         CB     14      A     C5    425     0.0515      12.01
   426         CA     14      A     C6    426     0.7009      12.01
   427         N2     14      A     N6    427    -0.9019      14.01
   428          H     14      A    H61    428     0.4115      1.008
   429          H     14      A    H62    429     0.4115      1.008
   430         NC     14      A     N1    430    -0.7615      14.01
   431         CQ     14      A     C2    431     0.5875      12.01
   432         H5     14      A     H2    432     0.0473      1.008
   433         NC     14      A     N3    433    -0.6997      14.01
   434         CB     14      A     C4    434     0.3053      12.01
   435         CT     14      A    C3'    435     0.2022      12.01
   436         H1     14      A    H3'    436     0.0615      1.008
   437         CT     14      A    C2'    437      0.067      12.01
   438         H1     14      A   H2'1    438     0.0972      1.008
   439         OH     14      A    O2'    439    -0.6139         16
   440         HO     14      A   HO'2    440     0.4186      1.008
   441         OS     14      A    O3'    441    -0.5246         16   ; qtot -13.31
; residue  15 A   rtp RA   q -1.0
   442          P     15      A      P    442     1.1662      30.97
   443         O2     15      A    O1P    443     -0.776         16
   444         O2     15      A    O2P    444     -0.776         16
   445         OS     15      A    O5'    445    -0.4989         16
   446         CT     15      A    C5'    446     0.0558      12.01
   447         H1     15      A   H5'1    447     0.0679      1.008
   448         H1     15      A   H5'2    448     0.0679      1.008
   449         CT     15      A    C4'    449     0.1065      12.01
   450         H1     15      A    H4'    450     0.1174      1.008
   451         OS     15      A    O4'    451    -0.3548         16
   452         CT     15      A    C1'    452     0.0394      12.01
   453         H2     15      A    H1'    453     0.2007      1.008
   454         N*     15      A     N9    454    -0.0251      14.01
   455         CK     15      A     C8    455     0.2006      12.01
   456         H5     15      A     H8    456     0.1553      1.008
   457         NB     15      A     N7    457    -0.6073      14.01
   458         CB     15      A     C5    458     0.0515      12.01
   459         CA     15      A     C6    459     0.7009      12.01
   460         N2     15      A     N6    460    -0.9019      14.01
   461          H     15      A    H61    461     0.4115      1.008
   462          H     15      A    H62    462     0.4115      1.008
   463         NC     15      A     N1    463    -0.7615      14.01
   464         CQ     15      A     C2    464     0.5875      12.01
   465         H5     15      A     H2    465     0.0473      1.008
   466         NC     15      A     N3    466    -0.6997      14.01
   467         CB     15      A     C4    467     0.3053      12.01
   468         CT     15      A    C3'    468     0.2022      12.01
   469         H1     15      A    H3'    469     0.0615      1.008
   470         CT     15      A    C2'    470      0.067      12.01
   471         H1     15      A   H2'1    471     0.0972      1.008
   472         OH     15      A    O2'    472    -0.6139         16
   473         HO     15      A   HO'2    473     0.4186      1.008
   474         OS     15      A    O3'    474    -0.5246         16   ; qtot -14.31
; residue  16 U   rtp RU   q -1.0
   475          P     16      U      P    475     1.1662      30.97
   476         O2     16      U    O1P    476     -0.776         16
   477         O2     16      U    O2P    477     -0.776         16
   478         OS     16      U    O5'    478    -0.4989         16
   479         CT     16      U    C5'    479     0.0558      12.01
   480         H1     16      U   H5'1    480     0.0679      1.008
   481         H1     16      U   H5'2    481     0.0679      1.008
   482         CT     16      U    C4'    482     0.1065      12.01
   483         H1     16      U    H4'    483     0.1174      1.008
   484         OS     16      U    O4'    484    -0.3548         16
   485         CT     16      U    C1'    485     0.0674      12.01
   486         H2     16      U    H1'    486     0.1824      1.008
   487         N*     16      U     N1    487     0.0418      14.01
   488         CM     16      U     C6    488    -0.1126      12.01
   489         H4     16      U     H6    489     0.2188      1.008
   490         CM     16      U     C5    490    -0.3635      12.01
   491         HA     16      U     H5    491     0.1811      1.008
   492          C     16      U     C4    492     0.5952      12.01
   493          O     16      U     O4    493    -0.5761         16
   494         NA     16      U     N3    494    -0.3549      14.01
   495          H     16      U     H3    495     0.3154      1.008
   496          C     16      U     C2    496     0.4687      12.01
   497          O     16      U     O2    497    -0.5477         16
   498         CT     16      U    C3'    498     0.2022      12.01
   499         H1     16      U    H3'    499     0.0615      1.008
   500         CT     16      U    C2'    500      0.067      12.01
   501         H1     16      U   H2'1    501     0.0972      1.008
   502         OH     16      U    O2'    502    -0.6139         16
   503         HO     16      U   HO'2    503     0.4186      1.008
   504         OS     16      U    O3'    504    -0.5246         16   ; qtot -15.31
; residue  17 C   rtp RC   q -1.0
   505          P     17      C      P    505     1.1662      30.97
   506         O2     17      C    O1P    506     -0.776         16
   507         O2     17      C    O2P    507     -0.776         16
   508         OS     17      C    O5'    508    -0.4989         16
   509         CT     17      C    C5'    509     0.0558      12.01
   510         H1     17      C   H5'1    510     0.0679      1.008
   511         H1     17      C   H5'2    511     0.0679      1.008
   512         CT     17      C    C4'    512     0.1065      12.01
   513         H1     17      C    H4'    513     0.1174      1.008
   514         OS     17      C    O4'    514    -0.3548         16
   515         CT     17      C    C1'    515     0.0066      12.01
   516         H2     17      C    H1'    516     0.2029      1.008
   517         N*     17      C     N1    517    -0.0484      14.01
   518         CM     17      C     C6    518     0.0053      12.01
   519         H4     17      C     H6    519     0.1958      1.008
   520         CM     17      C     C5    520    -0.5215      12.01
   521         HA     17      C     H5    521     0.1928      1.008
   522         CA     17      C     C4    522     0.8185      12.01
   523         N2     17      C     N4    523     -0.953      14.01
   524          H     17      C    H41    524     0.4234      1.008
   525          H     17      C    H42    525     0.4234      1.008
   526         NC     17      C     N3    526    -0.7584      14.01
   527          C     17      C     C2    527     0.7538      12.01
   528          O     17      C     O2    528    -0.6252         16
   529         CT     17      C    C3'    529     0.2022      12.01
   530         H1     17      C    H3'    530     0.0615      1.008
   531         CT     17      C    C2'    531      0.067      12.01
   532         H1     17      C   H2'1    532     0.0972      1.008
   533         OH     17      C    O2'    533    -0.6139         16
   534         HO     17      C   HO'2    534     0.4186      1.008
   535         OS     17      C    O3'    535    -0.5246         16   ; qtot -16.31
; residue  18 C   rtp RC   q -1.0
   536          P     18      C      P    536     1.1662      30.97
   537         O2     18      C    O1P    537     -0.776         16
   538         O2     18      C    O2P    538     -0.776         16
   539         OS     18      C    O5'    539    -0.4989         16
   540         CT     18      C    C5'    540     0.0558      12.01
   541         H1     18      C   H5'1    541     0.0679      1.008
   542         H1     18      C   H5'2    542     0.0679      1.008
   543         CT     18      C    C4'    543     0.1065      12.01
   544         H1     18      C    H4'    544     0.1174      1.008
   545         OS     18      C    O4'    545    -0.3548         16
   546         CT     18      C    C1'    546     0.0066      12.01
   547         H2     18      C    H1'    547     0.2029      1.008
   548         N*     18      C     N1    548    -0.0484      14.01
   549         CM     18      C     C6    549     0.0053      12.01
   550         H4     18      C     H6    550     0.1958      1.008
   551         CM     18      C     C5    551    -0.5215      12.01
   552         HA     18      C     H5    552     0.1928      1.008
   553         CA     18      C     C4    553     0.8185      12.01
   554         N2     18      C     N4    554     -0.953      14.01
   555          H     18      C    H41    555     0.4234      1.008
   556          H     18      C    H42    556     0.4234      1.008
   557         NC     18      C     N3    557    -0.7584      14.01
   558          C     18      C     C2    558     0.7538      12.01
   559          O     18      C     O2    559    -0.6252         16
   560         CT     18      C    C3'    560     0.2022      12.01
   561         H1     18      C    H3'    561     0.0615      1.008
   562         CT     18      C    C2'    562      0.067      12.01
   563         H1     18      C   H2'1    563     0.0972      1.008
   564         OH     18      C    O2'    564    -0.6139         16
   565         HO     18      C   HO'2    565     0.4186      1.008
   566         OS     18      C    O3'    566    -0.5246         16   ; qtot -17.31
; residue  19 U   rtp RU   q -1.0
   567          P     19      U      P    567     1.1662      30.97
   568         O2     19      U    O1P    568     -0.776         16
   569         O2     19      U    O2P    569     -0.776         16
   570         OS     19      U    O5'    570    -0.4989         16
   571         CT     19      U    C5'    571     0.0558      12.01
   572         H1     19      U   H5'1    572     0.0679      1.008
   573         H1     19      U   H5'2    573     0.0679      1.008
   574         CT     19      U    C4'    574     0.1065      12.01
   575         H1     19      U    H4'    575     0.1174      1.008
   576         OS     19      U    O4'    576    -0.3548         16
   577         CT     19      U    C1'    577     0.0674      12.01
   578         H2     19      U    H1'    578     0.1824      1.008
   579         N*     19      U     N1    579     0.0418      14.01
   580         CM     19      U     C6    580    -0.1126      12.01
   581         H4     19      U     H6    581     0.2188      1.008
   582         CM     19      U     C5    582    -0.3635      12.01
   583         HA     19      U     H5    583     0.1811      1.008
   584          C     19      U     C4    584     0.5952      12.01
   585          O     19      U     O4    585    -0.5761         16
   586         NA     19      U     N3    586    -0.3549      14.01
   587          H     19      U     H3    587     0.3154      1.008
   588          C     19      U     C2    588     0.4687      12.01
   589          O     19      U     O2    589    -0.5477         16
   590         CT     19      U    C3'    590     0.2022      12.01
   591         H1     19      U    H3'    591     0.0615      1.008
   592         CT     19      U    C2'    592      0.067      12.01
   593         H1     19      U   H2'1    593     0.0972      1.008
   594         OH     19      U    O2'    594    -0.6139         16
   595         HO     19      U   HO'2    595     0.4186      1.008
   596         OS     19      U    O3'    596    -0.5246         16   ; qtot -18.31
; residue  20 A   rtp RA   q -1.0
   597          P     20      A      P    597     1.1662      30.97
   598         O2     20      A    O1P    598     -0.776         16
   599         O2     20      A    O2P    599     -0.776         16
   600         OS     20      A    O5'    600    -0.4989         16
   601         CT     20      A    C5'    601     0.0558      12.01
   602         H1     20      A   H5'1    602     0.0679      1.008
   603         H1     20      A   H5'2    603     0.0679      1.008
   604         CT     20      A    C4'    604     0.1065      12.01
   605         H1     20      A    H4'    605     0.1174      1.008
   606         OS     20      A    O4'    606    -0.3548         16
   607         CT     20      A    C1'    607     0.0394      12.01
   608         H2     20      A    H1'    608     0.2007      1.008
   609         N*     20      A     N9    609    -0.0251      14.01
   610         CK     20      A     C8    610     0.2006      12.01
   611         H5     20      A     H8    611     0.1553      1.008
   612         NB     20      A     N7    612    -0.6073      14.01
   613         CB     20      A     C5    613     0.0515      12.01
   614         CA     20      A     C6    614     0.7009      12.01
   615         N2     20      A     N6    615    -0.9019      14.01
   616          H     20      A    H61    616     0.4115      1.008
   617          H     20      A    H62    617     0.4115      1.008
   618         NC     20      A     N1    618    -0.7615      14.01
   619         CQ     20      A     C2    619     0.5875      12.01
   620         H5     20      A     H2    620     0.0473      1.008
   621         NC     20      A     N3    621    -0.6997      14.01
   622         CB     20      A     C4    622     0.3053      12.01
   623         CT     20      A    C3'    623     0.2022      12.01
   624         H1     20      A    H3'    624     0.0615      1.008
   625         CT     20      A    C2'    625      0.067      12.01
   626         H1     20      A   H2'1    626     0.0972      1.008
   627         OH     20      A    O2'    627    -0.6139         16
   628         HO     20      A   HO'2    628     0.4186      1.008
   629         OS     20      A    O3'    629    -0.5246         16   ; qtot -19.31
; residue  21 U   rtp RU3  q -0.7
   630          P     21      U      P    630     1.1662      30.97
   631         O2     21      U    O1P    631     -0.776         16
   632         O2     21      U    O2P    632     -0.776         16
   633         OS     21      U    O5'    633    -0.4989         16
   634         CT     21      U    C5'    634     0.0558      12.01
   635         H1     21      U   H5'1    635     0.0679      1.008
   636         H1     21      U   H5'2    636     0.0679      1.008
   637         CT     21      U    C4'    637     0.1065      12.01
   638         H1     21      U    H4'    638     0.1174      1.008
   639         OS     21      U    O4'    639    -0.3548         16
   640         CT     21      U    C1'    640     0.0674      12.01
   641         H2     21      U    H1'    641     0.1824      1.008
   642         N*     21      U     N1    642     0.0418      14.01
   643         CM     21      U     C6    643    -0.1126      12.01
   644         H4     21      U     H6    644     0.2188      1.008
   645         CM     21      U     C5    645    -0.3635      12.01
   646         HA     21      U     H5    646     0.1811      1.008
   647          C     21      U     C4    647     0.5952      12.01
   648          O     21      U     O4    648    -0.5761         16
   649         NA     21      U     N3    649    -0.3549      14.01
   650          H     21      U     H3    650     0.3154      1.008
   651          C     21      U     C2    651     0.4687      12.01
   652          O     21      U     O2    652    -0.5477         16
   653         CT     21      U    C3'    653     0.2022      12.01
   654         H1     21      U    H3'    654     0.0615      1.008
   655         CT     21      U    C2'    655      0.067      12.01
   656         H1     21      U   H2'1    656     0.0972      1.008
   657         OH     21      U    O2'    657    -0.6139         16
   658         HO     21      U   HO'2    658     0.4186      1.008
   659         OH     21      U    O3'    659    -0.6541         16
   660         HO     21      U    H3T    660     0.4376      1.008   ; qtot -20

[ bonds ]
;  ai    aj funct            c0            c1            c2            c3
    1     2     1 
    1     3     1 
    3     4     1 
    3     5     1 
    3     6     1 
    6     7     1 
    6     8     1 
    6    26     1 
    8     9     1 
    9    10     1 
    9    11     1 
    9    28     1 
   11    12     1 
   11    25     1 
   12    13     1 
   12    14     1 
   14    15     1 
   15    16     1 
   15    25     1 
   16    17     1 
   16    18     1 
   18    19     1 
   18    20     1 
   20    21     1 
   20    24     1 
   21    22     1 
   21    23     1 
   24    25     1 
   26    27     1 
   26    28     1 
   26    32     1 
   28    29     1 
   28    30     1 
   30    31     1 
   32    33     1 
   33    34     1 
   33    35     1 
   33    36     1 
   36    37     1 
   37    38     1 
   37    39     1 
   37    40     1 
   40    41     1 
   40    42     1 
   40    56     1 
   42    43     1 
   43    44     1 
   43    45     1 
   43    58     1 
   45    46     1 
   45    54     1 
   46    47     1 
   46    48     1 
   48    49     1 
   48    50     1 
   50    51     1 
   50    52     1 
   52    53     1 
   52    54     1 
   54    55     1 
   56    57     1 
   56    58     1 
   56    62     1 
   58    59     1 
   58    60     1 
   60    61     1 
   62    63     1 
   63    64     1 
   63    65     1 
   63    66     1 
   66    67     1 
   67    68     1 
   67    69     1 
   67    70     1 
   70    71     1 
   70    72     1 
   70    87     1 
   72    73     1 
   73    74     1 
   73    75     1 
   73    89     1 
   75    76     1 
   75    85     1 
   76    77     1 
   76    78     1 
   78    79     1 
   78    80     1 
   80    81     1 
   80    84     1 
   81    82     1 
   81    83     1 
   84    85     1 
   85    86     1 
   87    88     1 
   87    89     1 
   87    93     1 
   89    90     1 
   89    91     1 
   91    92     1 
   93    94     1 
   94    95     1 
   94    96     1 
   94    97     1 
   97    98     1 
   98    99     1 
   98   100     1 
   98   101     1 
  101   102     1 
  101   103     1 
  101   117     1 
  103   104     1 
  104   105     1 
  104   106     1 
  104   119     1 
  106   107     1 
  106   115     1 
  107   108     1 
  107   109     1 
  109   110     1 
  109   111     1 
  111   112     1 
  111   113     1 
  113   114     1 
  113   115     1 
  115   116     1 
  117   118     1 
  117   119     1 
  117   123     1 
  119   120     1 
  119   121     1 
  121   122     1 
  123   124     1 
  124   125     1 
  124   126     1 
  124   127     1 
  127   128     1 
  128   129     1 
  128   130     1 
  128   131     1 
  131   132     1 
  131   133     1 
  131   148     1 
  133   134     1 
  134   135     1 
  134   136     1 
  134   150     1 
  136   137     1 
  136   146     1 
  137   138     1 
  137   139     1 
  139   140     1 
  139   141     1 
  141   142     1 
  141   145     1 
  142   143     1 
  142   144     1 
  145   146     1 
  146   147     1 
  148   149     1 
  148   150     1 
  148   154     1 
  150   151     1 
  150   152     1 
  152   153     1 
  154   155     1 
  155   156     1 
  155   157     1 
  155   158     1 
  158   159     1 
  159   160     1 
  159   161     1 
  159   162     1 
  162   163     1 
  162   164     1 
  162   179     1 
  164   165     1 
  165   166     1 
  165   167     1 
  165   181     1 
  167   168     1 
  167   177     1 
  168   169     1 
  168   170     1 
  170   171     1 
  170   172     1 
  172   173     1 
  172   176     1 
  173   174     1 
  173   175     1 
  176   177     1 
  177   178     1 
  179   180     1 
  179   181     1 
  179   185     1 
  181   182     1 
  181   183     1 
  183   184     1 
  185   186     1 
  186   187     1 
  186   188     1 
  186   189     1 
  189   190     1 
  190   191     1 
  190   192     1 
  190   193     1 
  193   194     1 
  193   195     1 
  193   209     1 
  195   196     1 
  196   197     1 
  196   198     1 
  196   211     1 
  198   199     1 
  198   207     1 
  199   200     1 
  199   201     1 
  201   202     1 
  201   203     1 
  203   204     1 
  203   205     1 
  205   206     1 
  205   207     1 
  207   208     1 
  209   210     1 
  209   211     1 
  209   215     1 
  211   212     1 
  211   213     1 
  213   214     1 
  215   216     1 
  216   217     1 
  216   218     1 
  216   219     1 
  219   220     1 
  220   221     1 
  220   222     1 
  220   223     1 
  223   224     1 
  223   225     1 
  223   242     1 
  225   226     1 
  226   227     1 
  226   228     1 
  226   244     1 
  228   229     1 
  228   241     1 
  229   230     1 
  229   231     1 
  231   232     1 
  232   233     1 
  232   241     1 
  233   234     1 
  233   237     1 
  234   235     1 
  234   236     1 
  237   238     1 
  238   239     1 
  238   240     1 
  240   241     1 
  242   243     1 
  242   244     1 
  242   248     1 
  244   245     1 
  244   246     1 
  246   247     1 
  248   249     1 
  249   250     1 
  249   251     1 
  249   252     1 
  252   253     1 
  253   254     1 
  253   255     1 
  253   256     1 
  256   257     1 
  256   258     1 
  256   275     1 
  258   259     1 
  259   260     1 
  259   261     1 
  259   277     1 
  261   262     1 
  261   274     1 
  262   263     1 
  262   264     1 
  264   265     1 
  265   266     1 
  265   274     1 
  266   267     1 
  266   270     1 
  267   268     1 
  267   269     1 
  270   271     1 
  271   272     1 
  271   273     1 
  273   274     1 
  275   276     1 
  275   277     1 
  275   281     1 
  277   278     1 
  277   279     1 
  279   280     1 
  281   282     1 
  282   283     1 
  282   284     1 
  282   285     1 
  285   286     1 
  286   287     1 
  286   288     1 
  286   289     1 
  289   290     1 
  289   291     1 
  289   305     1 
  291   292     1 
  292   293     1 
  292   294     1 
  292   307     1 
  294   295     1 
  294   303     1 
  295   296     1 
  295   297     1 
  297   298     1 
  297   299     1 
  299   300     1 
  299   301     1 
  301   302     1 
  301   303     1 
  303   304     1 
  305   306     1 
  305   307     1 
  305   311     1 
  307   308     1 
  307   309     1 
  309   310     1 
  311   312     1 
  312   313     1 
  312   314     1 
  312   315     1 
  315   316     1 
  316   317     1 
  316   318     1 
  316   319     1 
  319   320     1 
  319   321     1 
  319   338     1 
  321   322     1 
  322   323     1 
  322   324     1 
  322   340     1 
  324   325     1 
  324   337     1 
  325   326     1 
  325   327     1 
  327   328     1 
  328   329     1 
  328   337     1 
  329   330     1 
  329   333     1 
  330   331     1 
  330   332     1 
  333   334     1 
  334   335     1 
  334   336     1 
  336   337     1 
  338   339     1 
  338   340     1 
  338   344     1 
  340   341     1 
  340   342     1 
  342   343     1 
  344   345     1 
  345   346     1 
  345   347     1 
  345   348     1 
  348   349     1 
  349   350     1 
  349   351     1 
  349   352     1 
  352   353     1 
  352   354     1 
  352   368     1 
  354   355     1 
  355   356     1 
  355   357     1 
  355   370     1 
  357   358     1 
  357   366     1 
  358   359     1 
  358   360     1 
  360   361     1 
  360   362     1 
  362   363     1 
  362   364     1 
  364   365     1 
  364   366     1 
  366   367     1 
  368   369     1 
  368   370     1 
  368   374     1 
  370   371     1 
  370   372     1 
  372   373     1 
  374   375     1 
  375   376     1 
  375   377     1 
  375   378     1 
  378   379     1 
  379   380     1 
  379   381     1 
  379   382     1 
  382   383     1 
  382   384     1 
  382   402     1 
  384   385     1 
  385   386     1 
  385   387     1 
  385   404     1 
  387   388     1 
  387   401     1 
  388   389     1 
  388   390     1 
  390   391     1 
  391   392     1 
  391   401     1 
  392   393     1 
  392   394     1 
  394   395     1 
  394   396     1 
  396   397     1 
  396   400     1 
  397   398     1 
  397   399     1 
  400   401     1 
  402   403     1 
  402   404     1 
  402   408     1 
  404   405     1 
  404   406     1 
  406   407     1 
  408   409     1 
  409   410     1 
  409   411     1 
  409   412     1 
  412   413     1 
  413   414     1 
  413   415     1 
  413   416     1 
  416   417     1 
  416   418     1 
  416   435     1 
  418   419     1 
  419   420     1 
  419   421     1 
  419   437     1 
  421   422     1 
  421   434     1 
  422   423     1 
  422   424     1 
  424   425     1 
  425   426     1 
  425   434     1 
  426   427     1 
  426   430     1 
  427   428     1 
  427   429     1 
  430   431     1 
  431   432     1 
  431   433     1 
  433   434     1 
  435   436     1 
  435   437     1 
  435   441     1 
  437   438     1 
  437   439     1 
  439   440     1 
  441   442     1 
  442   443     1 
  442   444     1 
  442   445     1 
  445   446     1 
  446   447     1 
  446   448     1 
  446   449     1 
  449   450     1 
  449   451     1 
  449   468     1 
  451   452     1 
  452   453     1 
  452   454     1 
  452   470     1 
  454   455     1 
  454   467     1 
  455   456     1 
  455   457     1 
  457   458     1 
  458   459     1 
  458   467     1 
  459   460     1 
  459   463     1 
  460   461     1 
  460   462     1 
  463   464     1 
  464   465     1 
  464   466     1 
  466   467     1 
  468   469     1 
  468   470     1 
  468   474     1 
  470   471     1 
  470   472     1 
  472   473     1 
  474   475     1 
  475   476     1 
  475   477     1 
  475   478     1 
  478   479     1 
  479   480     1 
  479   481     1 
  479   482     1 
  482   483     1 
  482   484     1 
  482   498     1 
  484   485     1 
  485   486     1 
  485   487     1 
  485   500     1 
  487   488     1 
  487   496     1 
  488   489     1 
  488   490     1 
  490   491     1 
  490   492     1 
  492   493     1 
  492   494     1 
  494   495     1 
  494   496     1 
  496   497     1 
  498   499     1 
  498   500     1 
  498   504     1 
  500   501     1 
  500   502     1 
  502   503     1 
  504   505     1 
  505   506     1 
  505   507     1 
  505   508     1 
  508   509     1 
  509   510     1 
  509   511     1 
  509   512     1 
  512   513     1 
  512   514     1 
  512   529     1 
  514   515     1 
  515   516     1 
  515   517     1 
  515   531     1 
  517   518     1 
  517   527     1 
  518   519     1 
  518   520     1 
  520   521     1 
  520   522     1 
  522   523     1 
  522   526     1 
  523   524     1 
  523   525     1 
  526   527     1 
  527   528     1 
  529   530     1 
  529   531     1 
  529   535     1 
  531   532     1 
  531   533     1 
  533   534     1 
  535   536     1 
  536   537     1 
  536   538     1 
  536   539     1 
  539   540     1 
  540   541     1 
  540   542     1 
  540   543     1 
  543   544     1 
  543   545     1 
  543   560     1 
  545   546     1 
  546   547     1 
  546   548     1 
  546   562     1 
  548   549     1 
  548   558     1 
  549   550     1 
  549   551     1 
  551   552     1 
  551   553     1 
  553   554     1 
  553   557     1 
  554   555     1 
  554   556     1 
  557   558     1 
  558   559     1 
  560   561     1 
  560   562     1 
  560   566     1 
  562   563     1 
  562   564     1 
  564   565     1 
  566   567     1 
  567   568     1 
  567   569     1 
  567   570     1 
  570   571     1 
  571   572     1 
  571   573     1 
  571   574     1 
  574   575     1 
  574   576     1 
  574   590     1 
  576   577     1 
  577   578     1 
  577   579     1 
  577   592     1 
  579   580     1 
  579   588     1 
  580   581     1 
  580   582     1 
  582   583     1 
  582   584     1 
  584   585     1 
  584   586     1 
  586   587     1 
  586   588     1 
  588   589     1 
  590   591     1 
  590   592     1 
  590   596     1 
  592   593     1 
  592   594     1 
  594   595     1 
  596   597     1 
  597   598     1 
  597   599     1 
  597   600     1 
  600   601     1 
  601   602     1 
  601   603     1 
  601   604     1 
  604   605     1 
  604   606     1 
  604   623     1 
  606   607     1 
  607   608     1 
  607   609     1 
  607   625     1 
  609   610     1 
  609   622     1 
  610   611     1 
  610   612     1 
  612   613     1 
  613   614     1 
  613   622     1 
  614   615     1 
  614   618     1 
  615   616     1 
  615   617     1 
  618   619     1 
  619   620     1 
  619   621     1 
  621   622     1 
  623   624     1 
  623   625     1 
  623   629     1 
  625   626     1 
  625   627     1 
  627   628     1 
  629   630     1 
  630   631     1 
  630   632     1 
  630   633     1 
  633   634     1 
  634   635     1 
  634   636     1 
  634   637     1 
  637   638     1 
  637   639     1 
  637   653     1 
  639   640     1 
  640   641     1 
  640   642     1 
  640   655     1 
  642   643     1 
  642   651     1 
  643   644     1 
  643   645     1 
  645   646     1 
  645   647     1 
  647   648     1 
  647   649     1 
  649   650     1 
  649   651     1 
  651   652     1 
  653   654     1 
  653   655     1 
  653   659     1 
  655   656     1 
  655   657     1 
  657   658     1 
  659   660     1 

[ pairs ]
;  ai    aj funct            c0            c1            c2            c3
    1     7     1 
    1     8     1 
    1    26     1 
    2     4     1 
    2     5     1 
    2     6     1 
    3     9     1 
    3    27     1 
    3    28     1 
    3    32     1 
    4     7     1 
    4     8     1 
    4    26     1 
    5     7     1 
    5     8     1 
    5    26     1 
    6    10     1 
    6    11     1 
    6    29     1 
    6    30     1 
    6    33     1 
    7     9     1 
    7    27     1 
    7    28     1 
    7    32     1 
    8    12     1 
    8    25     1 
    8    27     1 
    8    29     1 
    8    30     1 
    8    32     1 
    9    13     1 
    9    14     1 
    9    15     1 
    9    24     1 
    9    27     1 
    9    31     1 
    9    32     1 
   10    12     1 
   10    25     1 
   10    26     1 
   10    29     1 
   10    30     1 
   11    16     1 
   11    20     1 
   11    26     1 
   11    29     1 
   11    30     1 
   12    16     1 
   12    24     1 
   12    28     1 
   13    15     1 
   13    25     1 
   14    17     1 
   14    18     1 
   14    24     1 
   15    19     1 
   15    20     1 
   16    21     1 
   16    24     1 
   17    19     1 
   17    20     1 
   17    25     1 
   18    22     1 
   18    23     1 
   18    25     1 
   19    21     1 
   19    24     1 
   21    25     1 
   22    24     1 
   23    24     1 
   25    28     1 
   26    31     1 
   26    34     1 
   26    35     1 
   26    36     1 
   27    29     1 
   27    30     1 
   27    33     1 
   28    33     1 
   29    31     1 
   29    32     1 
   30    32     1 
   32    37     1 
   33    38     1 
   33    39     1 
   33    40     1 
   34    37     1 
   35    37     1 
   36    41     1 
   36    42     1 
   36    56     1 
   37    43     1 
   37    57     1 
   37    58     1 
   37    62     1 
   38    41     1 
   38    42     1 
   38    56     1 
   39    41     1 
   39    42     1 
   39    56     1 
   40    44     1 
   40    45     1 
   40    59     1 
   40    60     1 
   40    63     1 
   41    43     1 
   41    57     1 
   41    58     1 
   41    62     1 
   42    46     1 
   42    54     1 
   42    57     1 
   42    59     1 
   42    60     1 
   42    62     1 
   43    47     1 
   43    48     1 
   43    52     1 
   43    55     1 
   43    57     1 
   43    61     1 
   43    62     1 
   44    46     1 
   44    54     1 
   44    56     1 
   44    59     1 
   44    60     1 
   45    49     1 
   45    50     1 
   45    53     1 
   45    56     1 
   45    59     1 
   45    60     1 
   46    51     1 
   46    52     1 
   46    55     1 
   46    58     1 
   47    49     1 
   47    50     1 
   47    54     1 
   48    53     1 
   48    54     1 
   49    51     1 
   49    52     1 
   50    55     1 
   51    53     1 
   51    54     1 
   53    55     1 
   54    58     1 
   56    61     1 
   56    64     1 
   56    65     1 
   56    66     1 
   57    59     1 
   57    60     1 
   57    63     1 
   58    63     1 
   59    61     1 
   59    62     1 
   60    62     1 
   62    67     1 
   63    68     1 
   63    69     1 
   63    70     1 
   64    67     1 
   65    67     1 
   66    71     1 
   66    72     1 
   66    87     1 
   67    73     1 
   67    88     1 
   67    89     1 
   67    93     1 
   68    71     1 
   68    72     1 
   68    87     1 
   69    71     1 
   69    72     1 
   69    87     1 
   70    74     1 
   70    75     1 
   70    90     1 
   70    91     1 
   70    94     1 
   71    73     1 
   71    88     1 
   71    89     1 
   71    93     1 
   72    76     1 
   72    85     1 
   72    88     1 
   72    90     1 
   72    91     1 
   72    93     1 
   73    77     1 
   73    78     1 
   73    84     1 
   73    86     1 
   73    88     1 
   73    92     1 
   73    93     1 
   74    76     1 
   74    85     1 
   74    87     1 
   74    90     1 
   74    91     1 
   75    79     1 
   75    80     1 
   75    87     1 
   75    90     1 
   75    91     1 
   76    81     1 
   76    84     1 
   76    86     1 
   76    89     1 
   77    79     1 
   77    80     1 
   77    85     1 
   78    82     1 
   78    83     1 
   78    85     1 
   79    81     1 
   79    84     1 
   80    86     1 
   81    85     1 
   82    84     1 
   83    84     1 
   85    89     1 
   87    92     1 
   87    95     1 
   87    96     1 
   87    97     1 
   88    90     1 
   88    91     1 
   88    94     1 
   89    94     1 
   90    92     1 
   90    93     1 
   91    93     1 
   93    98     1 
   94    99     1 
   94   100     1 
   94   101     1 
   95    98     1 
   96    98     1 
   97   102     1 
   97   103     1 
   97   117     1 
   98   104     1 
   98   118     1 
   98   119     1 
   98   123     1 
   99   102     1 
   99   103     1 
   99   117     1 
  100   102     1 
  100   103     1 
  100   117     1 
  101   105     1 
  101   106     1 
  101   120     1 
  101   121     1 
  101   124     1 
  102   104     1 
  102   118     1 
  102   119     1 
  102   123     1 
  103   107     1 
  103   115     1 
  103   118     1 
  103   120     1 
  103   121     1 
  103   123     1 
  104   108     1 
  104   109     1 
  104   113     1 
  104   116     1 
  104   118     1 
  104   122     1 
  104   123     1 
  105   107     1 
  105   115     1 
  105   117     1 
  105   120     1 
  105   121     1 
  106   110     1 
  106   111     1 
  106   114     1 
  106   117     1 
  106   120     1 
  106   121     1 
  107   112     1 
  107   113     1 
  107   116     1 
  107   119     1 
  108   110     1 
  108   111     1 
  108   115     1 
  109   114     1 
  109   115     1 
  110   112     1 
  110   113     1 
  111   116     1 
  112   114     1 
  112   115     1 
  114   116     1 
  115   119     1 
  117   122     1 
  117   125     1 
  117   126     1 
  117   127     1 
  118   120     1 
  118   121     1 
  118   124     1 
  119   124     1 
  120   122     1 
  120   123     1 
  121   123     1 
  123   128     1 
  124   129     1 
  124   130     1 
  124   131     1 
  125   128     1 
  126   128     1 
  127   132     1 
  127   133     1 
  127   148     1 
  128   134     1 
  128   149     1 
  128   150     1 
  128   154     1 
  129   132     1 
  129   133     1 
  129   148     1 
  130   132     1 
  130   133     1 
  130   148     1 
  131   135     1 
  131   136     1 
  131   151     1 
  131   152     1 
  131   155     1 
  132   134     1 
  132   149     1 
  132   150     1 
  132   154     1 
  133   137     1 
  133   146     1 
  133   149     1 
  133   151     1 
  133   152     1 
  133   154     1 
  134   138     1 
  134   139     1 
  134   145     1 
  134   147     1 
  134   149     1 
  134   153     1 
  134   154     1 
  135   137     1 
  135   146     1 
  135   148     1 
  135   151     1 
  135   152     1 
  136   140     1 
  136   141     1 
  136   148     1 
  136   151     1 
  136   152     1 
  137   142     1 
  137   145     1 
  137   147     1 
  137   150     1 
  138   140     1 
  138   141     1 
  138   146     1 
  139   143     1 
  139   144     1 
  139   146     1 
  140   142     1 
  140   145     1 
  141   147     1 
  142   146     1 
  143   145     1 
  144   145     1 
  146   150     1 
  148   153     1 
  148   156     1 
  148   157     1 
  148   158     1 
  149   151     1 
  149   152     1 
  149   155     1 
  150   155     1 
  151   153     1 
  151   154     1 
  152   154     1 
  154   159     1 
  155   160     1 
  155   161     1 
  155   162     1 
  156   159     1 
  157   159     1 
  158   163     1 
  158   164     1 
  158   179     1 
  159   165     1 
  159   180     1 
  159   181     1 
  159   185     1 
  160   163     1 
  160   164     1 
  160   179     1 
  161   163     1 
  161   164     1 
  161   179     1 
  162   166     1 
  162   167     1 
  162   182     1 
  162   183     1 
  162   186     1 
  163   165     1 
  163   180     1 
  163   181     1 
  163   185     1 
  164   168     1 
  164   177     1 
  164   180     1 
  164   182     1 
  164   183     1 
  164   185     1 
  165   169     1 
  165   170     1 
  165   176     1 
  165   178     1 
  165   180     1 
  165   184     1 
  165   185     1 
  166   168     1 
  166   177     1 
  166   179     1 
  166   182     1 
  166   183     1 
  167   171     1 
  167   172     1 
  167   179     1 
  167   182     1 
  167   183     1 
  168   173     1 
  168   176     1 
  168   178     1 
  168   181     1 
  169   171     1 
  169   172     1 
  169   177     1 
  170   174     1 
  170   175     1 
  170   177     1 
  171   173     1 
  171   176     1 
  172   178     1 
  173   177     1 
  174   176     1 
  175   176     1 
  177   181     1 
  179   184     1 
  179   187     1 
  179   188     1 
  179   189     1 
  180   182     1 
  180   183     1 
  180   186     1 
  181   186     1 
  182   184     1 
  182   185     1 
  183   185     1 
  185   190     1 
  186   191     1 
  186   192     1 
  186   193     1 
  187   190     1 
  188   190     1 
  189   194     1 
  189   195     1 
  189   209     1 
  190   196     1 
  190   210     1 
  190   211     1 
  190   215     1 
  191   194     1 
  191   195     1 
  191   209     1 
  192   194     1 
  192   195     1 
  192   209     1 
  193   197     1 
  193   198     1 
  193   212     1 
  193   213     1 
  193   216     1 
  194   196     1 
  194   210     1 
  194   211     1 
  194   215     1 
  195   199     1 
  195   207     1 
  195   210     1 
  195   212     1 
  195   213     1 
  195   215     1 
  196   200     1 
  196   201     1 
  196   205     1 
  196   208     1 
  196   210     1 
  196   214     1 
  196   215     1 
  197   199     1 
  197   207     1 
  197   209     1 
  197   212     1 
  197   213     1 
  198   202     1 
  198   203     1 
  198   206     1 
  198   209     1 
  198   212     1 
  198   213     1 
  199   204     1 
  199   205     1 
  199   208     1 
  199   211     1 
  200   202     1 
  200   203     1 
  200   207     1 
  201   206     1 
  201   207     1 
  202   204     1 
  202   205     1 
  203   208     1 
  204   206     1 
  204   207     1 
  206   208     1 
  207   211     1 
  209   214     1 
  209   217     1 
  209   218     1 
  209   219     1 
  210   212     1 
  210   213     1 
  210   216     1 
  211   216     1 
  212   214     1 
  212   215     1 
  213   215     1 
  215   220     1 
  216   221     1 
  216   222     1 
  216   223     1 
  217   220     1 
  218   220     1 
  219   224     1 
  219   225     1 
  219   242     1 
  220   226     1 
  220   243     1 
  220   244     1 
  220   248     1 
  221   224     1 
  221   225     1 
  221   242     1 
  222   224     1 
  222   225     1 
  222   242     1 
  223   227     1 
  223   228     1 
  223   245     1 
  223   246     1 
  223   249     1 
  224   226     1 
  224   243     1 
  224   244     1 
  224   248     1 
  225   229     1 
  225   241     1 
  225   243     1 
  225   245     1 
  225   246     1 
  225   248     1 
  226   230     1 
  226   231     1 
  226   232     1 
  226   240     1 
  226   243     1 
  226   247     1 
  226   248     1 
  227   229     1 
  227   241     1 
  227   242     1 
  227   245     1 
  227   246     1 
  228   233     1 
  228   238     1 
  228   242     1 
  228   245     1 
  228   246     1 
  229   233     1 
  229   240     1 
  229   244     1 
  230   232     1 
  230   241     1 
  231   234     1 
  231   237     1 
  231   240     1 
  232   235     1 
  232   236     1 
  232   238     1 
  233   239     1 
  233   240     1 
  234   238     1 
  234   241     1 
  235   237     1 
  236   237     1 
  237   241     1 
  239   241     1 
  241   244     1 
  242   247     1 
  242   250     1 
  242   251     1 
  242   252     1 
  243   245     1 
  243   246     1 
  243   249     1 
  244   249     1 
  245   247     1 
  245   248     1 
  246   248     1 
  248   253     1 
  249   254     1 
  249   255     1 
  249   256     1 
  250   253     1 
  251   253     1 
  252   257     1 
  252   258     1 
  252   275     1 
  253   259     1 
  253   276     1 
  253   277     1 
  253   281     1 
  254   257     1 
  254   258     1 
  254   275     1 
  255   257     1 
  255   258     1 
  255   275     1 
  256   260     1 
  256   261     1 
  256   278     1 
  256   279     1 
  256   282     1 
  257   259     1 
  257   276     1 
  257   277     1 
  257   281     1 
  258   262     1 
  258   274     1 
  258   276     1 
  258   278     1 
  258   279     1 
  258   281     1 
  259   263     1 
  259   264     1 
  259   265     1 
  259   273     1 
  259   276     1 
  259   280     1 
  259   281     1 
  260   262     1 
  260   274     1 
  260   275     1 
  260   278     1 
  260   279     1 
  261   266     1 
  261   271     1 
  261   275     1 
  261   278     1 
  261   279     1 
  262   266     1 
  262   273     1 
  262   277     1 
  263   265     1 
  263   274     1 
  264   267     1 
  264   270     1 
  264   273     1 
  265   268     1 
  265   269     1 
  265   271     1 
  266   272     1 
  266   273     1 
  267   271     1 
  267   274     1 
  268   270     1 
  269   270     1 
  270   274     1 
  272   274     1 
  274   277     1 
  275   280     1 
  275   283     1 
  275   284     1 
  275   285     1 
  276   278     1 
  276   279     1 
  276   282     1 
  277   282     1 
  278   280     1 
  278   281     1 
  279   281     1 
  281   286     1 
  282   287     1 
  282   288     1 
  282   289     1 
  283   286     1 
  284   286     1 
  285   290     1 
  285   291     1 
  285   305     1 
  286   292     1 
  286   306     1 
  286   307     1 
  286   311     1 
  287   290     1 
  287   291     1 
  287   305     1 
  288   290     1 
  288   291     1 
  288   305     1 
  289   293     1 
  289   294     1 
  289   308     1 
  289   309     1 
  289   312     1 
  290   292     1 
  290   306     1 
  290   307     1 
  290   311     1 
  291   295     1 
  291   303     1 
  291   306     1 
  291   308     1 
  291   309     1 
  291   311     1 
  292   296     1 
  292   297     1 
  292   301     1 
  292   304     1 
  292   306     1 
  292   310     1 
  292   311     1 
  293   295     1 
  293   303     1 
  293   305     1 
  293   308     1 
  293   309     1 
  294   298     1 
  294   299     1 
  294   302     1 
  294   305     1 
  294   308     1 
  294   309     1 
  295   300     1 
  295   301     1 
  295   304     1 
  295   307     1 
  296   298     1 
  296   299     1 
  296   303     1 
  297   302     1 
  297   303     1 
  298   300     1 
  298   301     1 
  299   304     1 
  300   302     1 
  300   303     1 
  302   304     1 
  303   307     1 
  305   310     1 
  305   313     1 
  305   314     1 
  305   315     1 
  306   308     1 
  306   309     1 
  306   312     1 
  307   312     1 
  308   310     1 
  308   311     1 
  309   311     1 
  311   316     1 
  312   317     1 
  312   318     1 
  312   319     1 
  313   316     1 
  314   316     1 
  315   320     1 
  315   321     1 
  315   338     1 
  316   322     1 
  316   339     1 
  316   340     1 
  316   344     1 
  317   320     1 
  317   321     1 
  317   338     1 
  318   320     1 
  318   321     1 
  318   338     1 
  319   323     1 
  319   324     1 
  319   341     1 
  319   342     1 
  319   345     1 
  320   322     1 
  320   339     1 
  320   340     1 
  320   344     1 
  321   325     1 
  321   337     1 
  321   339     1 
  321   341     1 
  321   342     1 
  321   344     1 
  322   326     1 
  322   327     1 
  322   328     1 
  322   336     1 
  322   339     1 
  322   343     1 
  322   344     1 
  323   325     1 
  323   337     1 
  323   338     1 
  323   341     1 
  323   342     1 
  324   329     1 
  324   334     1 
  324   338     1 
  324   341     1 
  324   342     1 
  325   329     1 
  325   336     1 
  325   340     1 
  326   328     1 
  326   337     1 
  327   330     1 
  327   333     1 
  327   336     1 
  328   331     1 
  328   332     1 
  328   334     1 
  329   335     1 
  329   336     1 
  330   334     1 
  330   337     1 
  331   333     1 
  332   333     1 
  333   337     1 
  335   337     1 
  337   340     1 
  338   343     1 
  338   346     1 
  338   347     1 
  338   348     1 
  339   341     1 
  339   342     1 
  339   345     1 
  340   345     1 
  341   343     1 
  341   344     1 
  342   344     1 
  344   349     1 
  345   350     1 
  345   351     1 
  345   352     1 
  346   349     1 
  347   349     1 
  348   353     1 
  348   354     1 
  348   368     1 
  349   355     1 
  349   369     1 
  349   370     1 
  349   374     1 
  350   353     1 
  350   354     1 
  350   368     1 
  351   353     1 
  351   354     1 
  351   368     1 
  352   356     1 
  352   357     1 
  352   371     1 
  352   372     1 
  352   375     1 
  353   355     1 
  353   369     1 
  353   370     1 
  353   374     1 
  354   358     1 
  354   366     1 
  354   369     1 
  354   371     1 
  354   372     1 
  354   374     1 
  355   359     1 
  355   360     1 
  355   364     1 
  355   367     1 
  355   369     1 
  355   373     1 
  355   374     1 
  356   358     1 
  356   366     1 
  356   368     1 
  356   371     1 
  356   372     1 
  357   361     1 
  357   362     1 
  357   365     1 
  357   368     1 
  357   371     1 
  357   372     1 
  358   363     1 
  358   364     1 
  358   367     1 
  358   370     1 
  359   361     1 
  359   362     1 
  359   366     1 
  360   365     1 
  360   366     1 
  361   363     1 
  361   364     1 
  362   367     1 
  363   365     1 
  363   366     1 
  365   367     1 
  366   370     1 
  368   373     1 
  368   376     1 
  368   377     1 
  368   378     1 
  369   371     1 
  369   372     1 
  369   375     1 
  370   375     1 
  371   373     1 
  371   374     1 
  372   374     1 
  374   379     1 
  375   380     1 
  375   381     1 
  375   382     1 
  376   379     1 
  377   379     1 
  378   383     1 
  378   384     1 
  378   402     1 
  379   385     1 
  379   403     1 
  379   404     1 
  379   408     1 
  380   383     1 
  380   384     1 
  380   402     1 
  381   383     1 
  381   384     1 
  381   402     1 
  382   386     1 
  382   387     1 
  382   405     1 
  382   406     1 
  382   409     1 
  383   385     1 
  383   403     1 
  383   404     1 
  383   408     1 
  384   388     1 
  384   401     1 
  384   403     1 
  384   405     1 
  384   406     1 
  384   408     1 
  385   389     1 
  385   390     1 
  385   391     1 
  385   400     1 
  385   403     1 
  385   407     1 
  385   408     1 
  386   388     1 
  386   401     1 
  386   402     1 
  386   405     1 
  386   406     1 
  387   392     1 
  387   396     1 
  387   402     1 
  387   405     1 
  387   406     1 
  388   392     1 
  388   400     1 
  388   404     1 
  389   391     1 
  389   401     1 
  390   393     1 
  390   394     1 
  390   400     1 
  391   395     1 
  391   396     1 
  392   397     1 
  392   400     1 
  393   395     1 
  393   396     1 
  393   401     1 
  394   398     1 
  394   399     1 
  394   401     1 
  395   397     1 
  395   400     1 
  397   401     1 
  398   400     1 
  399   400     1 
  401   404     1 
  402   407     1 
  402   410     1 
  402   411     1 
  402   412     1 
  403   405     1 
  403   406     1 
  403   409     1 
  404   409     1 
  405   407     1 
  405   408     1 
  406   408     1 
  408   413     1 
  409   414     1 
  409   415     1 
  409   416     1 
  410   413     1 
  411   413     1 
  412   417     1 
  412   418     1 
  412   435     1 
  413   419     1 
  413   436     1 
  413   437     1 
  413   441     1 
  414   417     1 
  414   418     1 
  414   435     1 
  415   417     1 
  415   418     1 
  415   435     1 
  416   420     1 
  416   421     1 
  416   438     1 
  416   439     1 
  416   442     1 
  417   419     1 
  417   436     1 
  417   437     1 
  417   441     1 
  418   422     1 
  418   434     1 
  418   436     1 
  418   438     1 
  418   439     1 
  418   441     1 
  419   423     1 
  419   424     1 
  419   425     1 
  419   433     1 
  419   436     1 
  419   440     1 
  419   441     1 
  420   422     1 
  420   434     1 
  420   435     1 
  420   438     1 
  420   439     1 
  421   426     1 
  421   431     1 
  421   435     1 
  421   438     1 
  421   439     1 
  422   426     1 
  422   433     1 
  422   437     1 
  423   425     1 
  423   434     1 
  424   427     1 
  424   430     1 
  424   433     1 
  425   428     1 
  425   429     1 
  425   431     1 
  426   432     1 
  426   433     1 
  427   431     1 
  427   434     1 
  428   430     1 
  429   430     1 
  430   434     1 
  432   434     1 
  434   437     1 
  435   440     1 
  435   443     1 
  435   444     1 
  435   445     1 
  436   438     1 
  436   439     1 
  436   442     1 
  437   442     1 
  438   440     1 
  438   441     1 
  439   441     1 
  441   446     1 
  442   447     1 
  442   448     1 
  442   449     1 
  443   446     1 
  444   446     1 
  445   450     1 
  445   451     1 
  445   468     1 
  446   452     1 
  446   469     1 
  446   470     1 
  446   474     1 
  447   450     1 
  447   451     1 
  447   468     1 
  448   450     1 
  448   451     1 
  448   468     1 
  449   453     1 
  449   454     1 
  449   471     1 
  449   472     1 
  449   475     1 
  450   452     1 
  450   469     1 
  450   470     1 
  450   474     1 
  451   455     1 
  451   467     1 
  451   469     1 
  451   471     1 
  451   472     1 
  451   474     1 
  452   456     1 
  452   457     1 
  452   458     1 
  452   466     1 
  452   469     1 
  452   473     1 
  452   474     1 
  453   455     1 
  453   467     1 
  453   468     1 
  453   471     1 
  453   472     1 
  454   459     1 
  454   464     1 
  454   468     1 
  454   471     1 
  454   472     1 
  455   459     1 
  455   466     1 
  455   470     1 
  456   458     1 
  456   467     1 
  457   460     1 
  457   463     1 
  457   466     1 
  458   461     1 
  458   462     1 
  458   464     1 
  459   465     1 
  459   466     1 
  460   464     1 
  460   467     1 
  461   463     1 
  462   463     1 
  463   467     1 
  465   467     1 
  467   470     1 
  468   473     1 
  468   476     1 
  468   477     1 
  468   478     1 
  469   471     1 
  469   472     1 
  469   475     1 
  470   475     1 
  471   473     1 
  471   474     1 
  472   474     1 
  474   479     1 
  475   480     1 
  475   481     1 
  475   482     1 
  476   479     1 
  477   479     1 
  478   483     1 
  478   484     1 
  478   498     1 
  479   485     1 
  479   499     1 
  479   500     1 
  479   504     1 
  480   483     1 
  480   484     1 
  480   498     1 
  481   483     1 
  481   484     1 
  481   498     1 
  482   486     1 
  482   487     1 
  482   501     1 
  482   502     1 
  482   505     1 
  483   485     1 
  483   499     1 
  483   500     1 
  483   504     1 
  484   488     1 
  484   496     1 
  484   499     1 
  484   501     1 
  484   502     1 
  484   504     1 
  485   489     1 
  485   490     1 
  485   494     1 
  485   497     1 
  485   499     1 
  485   503     1 
  485   504     1 
  486   488     1 
  486   496     1 
  486   498     1 
  486   501     1 
  486   502     1 
  487   491     1 
  487   492     1 
  487   495     1 
  487   498     1 
  487   501     1 
  487   502     1 
  488   493     1 
  488   494     1 
  488   497     1 
  488   500     1 
  489   491     1 
  489   492     1 
  489   496     1 
  490   495     1 
  490   496     1 
  491   493     1 
  491   494     1 
  492   497     1 
  493   495     1 
  493   496     1 
  495   497     1 
  496   500     1 
  498   503     1 
  498   506     1 
  498   507     1 
  498   508     1 
  499   501     1 
  499   502     1 
  499   505     1 
  500   505     1 
  501   503     1 
  501   504     1 
  502   504     1 
  504   509     1 
  505   510     1 
  505   511     1 
  505   512     1 
  506   509     1 
  507   509     1 
  508   513     1 
  508   514     1 
  508   529     1 
  509   515     1 
  509   530     1 
  509   531     1 
  509   535     1 
  510   513     1 
  510   514     1 
  510   529     1 
  511   513     1 
  511   514     1 
  511   529     1 
  512   516     1 
  512   517     1 
  512   532     1 
  512   533     1 
  512   536     1 
  513   515     1 
  513   530     1 
  513   531     1 
  513   535     1 
  514   518     1 
  514   527     1 
  514   530     1 
  514   532     1 
  514   533     1 
  514   535     1 
  515   519     1 
  515   520     1 
  515   526     1 
  515   528     1 
  515   530     1 
  515   534     1 
  515   535     1 
  516   518     1 
  516   527     1 
  516   529     1 
  516   532     1 
  516   533     1 
  517   521     1 
  517   522     1 
  517   529     1 
  517   532     1 
  517   533     1 
  518   523     1 
  518   526     1 
  518   528     1 
  518   531     1 
  519   521     1 
  519   522     1 
  519   527     1 
  520   524     1 
  520   525     1 
  520   527     1 
  521   523     1 
  521   526     1 
  522   528     1 
  523   527     1 
  524   526     1 
  525   526     1 
  527   531     1 
  529   534     1 
  529   537     1 
  529   538     1 
  529   539     1 
  530   532     1 
  530   533     1 
  530   536     1 
  531   536     1 
  532   534     1 
  532   535     1 
  533   535     1 
  535   540     1 
  536   541     1 
  536   542     1 
  536   543     1 
  537   540     1 
  538   540     1 
  539   544     1 
  539   545     1 
  539   560     1 
  540   546     1 
  540   561     1 
  540   562     1 
  540   566     1 
  541   544     1 
  541   545     1 
  541   560     1 
  542   544     1 
  542   545     1 
  542   560     1 
  543   547     1 
  543   548     1 
  543   563     1 
  543   564     1 
  543   567     1 
  544   546     1 
  544   561     1 
  544   562     1 
  544   566     1 
  545   549     1 
  545   558     1 
  545   561     1 
  545   563     1 
  545   564     1 
  545   566     1 
  546   550     1 
  546   551     1 
  546   557     1 
  546   559     1 
  546   561     1 
  546   565     1 
  546   566     1 
  547   549     1 
  547   558     1 
  547   560     1 
  547   563     1 
  547   564     1 
  548   552     1 
  548   553     1 
  548   560     1 
  548   563     1 
  548   564     1 
  549   554     1 
  549   557     1 
  549   559     1 
  549   562     1 
  550   552     1 
  550   553     1 
  550   558     1 
  551   555     1 
  551   556     1 
  551   558     1 
  552   554     1 
  552   557     1 
  553   559     1 
  554   558     1 
  555   557     1 
  556   557     1 
  558   562     1 
  560   565     1 
  560   568     1 
  560   569     1 
  560   570     1 
  561   563     1 
  561   564     1 
  561   567     1 
  562   567     1 
  563   565     1 
  563   566     1 
  564   566     1 
  566   571     1 
  567   572     1 
  567   573     1 
  567   574     1 
  568   571     1 
  569   571     1 
  570   575     1 
  570   576     1 
  570   590     1 
  571   577     1 
  571   591     1 
  571   592     1 
  571   596     1 
  572   575     1 
  572   576     1 
  572   590     1 
  573   575     1 
  573   576     1 
  573   590     1 
  574   578     1 
  574   579     1 
  574   593     1 
  574   594     1 
  574   597     1 
  575   577     1 
  575   591     1 
  575   592     1 
  575   596     1 
  576   580     1 
  576   588     1 
  576   591     1 
  576   593     1 
  576   594     1 
  576   596     1 
  577   581     1 
  577   582     1 
  577   586     1 
  577   589     1 
  577   591     1 
  577   595     1 
  577   596     1 
  578   580     1 
  578   588     1 
  578   590     1 
  578   593     1 
  578   594     1 
  579   583     1 
  579   584     1 
  579   587     1 
  579   590     1 
  579   593     1 
  579   594     1 
  580   585     1 
  580   586     1 
  580   589     1 
  580   592     1 
  581   583     1 
  581   584     1 
  581   588     1 
  582   587     1 
  582   588     1 
  583   585     1 
  583   586     1 
  584   589     1 
  585   587     1 
  585   588     1 
  587   589     1 
  588   592     1 
  590   595     1 
  590   598     1 
  590   599     1 
  590   600     1 
  591   593     1 
  591   594     1 
  591   597     1 
  592   597     1 
  593   595     1 
  593   596     1 
  594   596     1 
  596   601     1 
  597   602     1 
  597   603     1 
  597   604     1 
  598   601     1 
  599   601     1 
  600   605     1 
  600   606     1 
  600   623     1 
  601   607     1 
  601   624     1 
  601   625     1 
  601   629     1 
  602   605     1 
  602   606     1 
  602   623     1 
  603   605     1 
  603   606     1 
  603   623     1 
  604   608     1 
  604   609     1 
  604   626     1 
  604   627     1 
  604   630     1 
  605   607     1 
  605   624     1 
  605   625     1 
  605   629     1 
  606   610     1 
  606   622     1 
  606   624     1 
  606   626     1 
  606   627     1 
  606   629     1 
  607   611     1 
  607   612     1 
  607   613     1 
  607   621     1 
  607   624     1 
  607   628     1 
  607   629     1 
  608   610     1 
  608   622     1 
  608   623     1 
  608   626     1 
  608   627     1 
  609   614     1 
  609   619     1 
  609   623     1 
  609   626     1 
  609   627     1 
  610   614     1 
  610   621     1 
  610   625     1 
  611   613     1 
  611   622     1 
  612   615     1 
  612   618     1 
  612   621     1 
  613   616     1 
  613   617     1 
  613   619     1 
  614   620     1 
  614   621     1 
  615   619     1 
  615   622     1 
  616   618     1 
  617   618     1 
  618   622     1 
  620   622     1 
  622   625     1 
  623   628     1 
  623   631     1 
  623   632     1 
  623   633     1 
  624   626     1 
  624   627     1 
  624   630     1 
  625   630     1 
  626   628     1 
  626   629     1 
  627   629     1 
  629   634     1 
  630   635     1 
  630   636     1 
  630   637     1 
  631   634     1 
  632   634     1 
  633   638     1 
  633   639     1 
  633   653     1 
  634   640     1 
  634   654     1 
  634   655     1 
  634   659     1 
  635   638     1 
  635   639     1 
  635   653     1 
  636   638     1 
  636   639     1 
  636   653     1 
  637   641     1 
  637   642     1 
  637   656     1 
  637   657     1 
  637   660     1 
  638   640     1 
  638   654     1 
  638   655     1 
  638   659     1 
  639   643     1 
  639   651     1 
  639   654     1 
  639   656     1 
  639   657     1 
  639   659     1 
  640   644     1 
  640   645     1 
  640   649     1 
  640   652     1 
  640   654     1 
  640   658     1 
  640   659     1 
  641   643     1 
  641   651     1 
  641   653     1 
  641   656     1 
  641   657     1 
  642   646     1 
  642   647     1 
  642   650     1 
  642   653     1 
  642   656     1 
  642   657     1 
  643   648     1 
  643   649     1 
  643   652     1 
  643   655     1 
  644   646     1 
  644   647     1 
  644   651     1 
  645   650     1 
  645   651     1 
  646   648     1 
  646   649     1 
  647   652     1 
  648   650     1 
  648   651     1 
  650   652     1 
  651   655     1 
  653   658     1 
  654   656     1 
  654   657     1 
  654   660     1 
  655   660     1 
  656   658     1 
  656   659     1 
  657   659     1 

[ angles ]
;  ai    aj    ak funct            c0            c1            c2            c3
    2     1     3     1 
    1     3     4     1 
    1     3     5     1 
    1     3     6     1 
    4     3     5     1 
    4     3     6     1 
    5     3     6     1 
    3     6     7     1 
    3     6     8     1 
    3     6    26     1 
    7     6     8     1 
    7     6    26     1 
    8     6    26     1 
    6     8     9     1 
    8     9    10     1 
    8     9    11     1 
    8     9    28     1 
   10     9    11     1 
   10     9    28     1 
   11     9    28     1 
    9    11    12     1 
    9    11    25     1 
   12    11    25     1 
   11    12    13     1 
   11    12    14     1 
   13    12    14     1 
   12    14    15     1 
   14    15    16     1 
   14    15    25     1 
   16    15    25     1 
   15    16    17     1 
   15    16    18     1 
   17    16    18     1 
   16    18    19     1 
   16    18    20     1 
   19    18    20     1 
   18    20    21     1 
   18    20    24     1 
   21    20    24     1 
   20    21    22     1 
   20    21    23     1 
   22    21    23     1 
   20    24    25     1 
   11    25    15     1 
   11    25    24     1 
   15    25    24     1 
    6    26    27     1 
    6    26    28     1 
    6    26    32     1 
   27    26    28     1 
   27    26    32     1 
   28    26    32     1 
    9    28    26     1 
    9    28    29     1 
    9    28    30     1 
   26    28    29     1 
   26    28    30     1 
   29    28    30     1 
   28    30    31     1 
   26    32    33     1 
   32    33    34     1 
   32    33    35     1 
   32    33    36     1 
   34    33    35     1 
   34    33    36     1 
   35    33    36     1 
   33    36    37     1 
   36    37    38     1 
   36    37    39     1 
   36    37    40     1 
   38    37    39     1 
   38    37    40     1 
   39    37    40     1 
   37    40    41     1 
   37    40    42     1 
   37    40    56     1 
   41    40    42     1 
   41    40    56     1 
   42    40    56     1 
   40    42    43     1 
   42    43    44     1 
   42    43    45     1 
   42    43    58     1 
   44    43    45     1 
   44    43    58     1 
   45    43    58     1 
   43    45    46     1 
   43    45    54     1 
   46    45    54     1 
   45    46    47     1 
   45    46    48     1 
   47    46    48     1 
   46    48    49     1 
   46    48    50     1 
   49    48    50     1 
   48    50    51     1 
   48    50    52     1 
   51    50    52     1 
   50    52    53     1 
   50    52    54     1 
   53    52    54     1 
   45    54    52     1 
   45    54    55     1 
   52    54    55     1 
   40    56    57     1 
   40    56    58     1 
   40    56    62     1 
   57    56    58     1 
   57    56    62     1 
   58    56    62     1 
   43    58    56     1 
   43    58    59     1 
   43    58    60     1 
   56    58    59     1 
   56    58    60     1 
   59    58    60     1 
   58    60    61     1 
   56    62    63     1 
   62    63    64     1 
   62    63    65     1 
   62    63    66     1 
   64    63    65     1 
   64    63    66     1 
   65    63    66     1 
   63    66    67     1 
   66    67    68     1 
   66    67    69     1 
   66    67    70     1 
   68    67    69     1 
   68    67    70     1 
   69    67    70     1 
   67    70    71     1 
   67    70    72     1 
   67    70    87     1 
   71    70    72     1 
   71    70    87     1 
   72    70    87     1 
   70    72    73     1 
   72    73    74     1 
   72    73    75     1 
   72    73    89     1 
   74    73    75     1 
   74    73    89     1 
   75    73    89     1 
   73    75    76     1 
   73    75    85     1 
   76    75    85     1 
   75    76    77     1 
   75    76    78     1 
   77    76    78     1 
   76    78    79     1 
   76    78    80     1 
   79    78    80     1 
   78    80    81     1 
   78    80    84     1 
   81    80    84     1 
   80    81    82     1 
   80    81    83     1 
   82    81    83     1 
   80    84    85     1 
   75    85    84     1 
   75    85    86     1 
   84    85    86     1 
   70    87    88     1 
   70    87    89     1 
   70    87    93     1 
   88    87    89     1 
   88    87    93     1 
   89    87    93     1 
   73    89    87     1 
   73    89    90     1 
   73    89    91     1 
   87    89    90     1 
   87    89    91     1 
   90    89    91     1 
   89    91    92     1 
   87    93    94     1 
   93    94    95     1 
   93    94    96     1 
   93    94    97     1 
   95    94    96     1 
   95    94    97     1 
   96    94    97     1 
   94    97    98     1 
   97    98    99     1 
   97    98   100     1 
   97    98   101     1 
   99    98   100     1 
   99    98   101     1 
  100    98   101     1 
   98   101   102     1 
   98   101   103     1 
   98   101   117     1 
  102   101   103     1 
  102   101   117     1 
  103   101   117     1 
  101   103   104     1 
  103   104   105     1 
  103   104   106     1 
  103   104   119     1 
  105   104   106     1 
  105   104   119     1 
  106   104   119     1 
  104   106   107     1 
  104   106   115     1 
  107   106   115     1 
  106   107   108     1 
  106   107   109     1 
  108   107   109     1 
  107   109   110     1 
  107   109   111     1 
  110   109   111     1 
  109   111   112     1 
  109   111   113     1 
  112   111   113     1 
  111   113   114     1 
  111   113   115     1 
  114   113   115     1 
  106   115   113     1 
  106   115   116     1 
  113   115   116     1 
  101   117   118     1 
  101   117   119     1 
  101   117   123     1 
  118   117   119     1 
  118   117   123     1 
  119   117   123     1 
  104   119   117     1 
  104   119   120     1 
  104   119   121     1 
  117   119   120     1 
  117   119   121     1 
  120   119   121     1 
  119   121   122     1 
  117   123   124     1 
  123   124   125     1 
  123   124   126     1 
  123   124   127     1 
  125   124   126     1 
  125   124   127     1 
  126   124   127     1 
  124   127   128     1 
  127   128   129     1 
  127   128   130     1 
  127   128   131     1 
  129   128   130     1 
  129   128   131     1 
  130   128   131     1 
  128   131   132     1 
  128   131   133     1 
  128   131   148     1 
  132   131   133     1 
  132   131   148     1 
  133   131   148     1 
  131   133   134     1 
  133   134   135     1 
  133   134   136     1 
  133   134   150     1 
  135   134   136     1 
  135   134   150     1 
  136   134   150     1 
  134   136   137     1 
  134   136   146     1 
  137   136   146     1 
  136   137   138     1 
  136   137   139     1 
  138   137   139     1 
  137   139   140     1 
  137   139   141     1 
  140   139   141     1 
  139   141   142     1 
  139   141   145     1 
  142   141   145     1 
  141   142   143     1 
  141   142   144     1 
  143   142   144     1 
  141   145   146     1 
  136   146   145     1 
  136   146   147     1 
  145   146   147     1 
  131   148   149     1 
  131   148   150     1 
  131   148   154     1 
  149   148   150     1 
  149   148   154     1 
  150   148   154     1 
  134   150   148     1 
  134   150   151     1 
  134   150   152     1 
  148   150   151     1 
  148   150   152     1 
  151   150   152     1 
  150   152   153     1 
  148   154   155     1 
  154   155   156     1 
  154   155   157     1 
  154   155   158     1 
  156   155   157     1 
  156   155   158     1 
  157   155   158     1 
  155   158   159     1 
  158   159   160     1 
  158   159   161     1 
  158   159   162     1 
  160   159   161     1 
  160   159   162     1 
  161   159   162     1 
  159   162   163     1 
  159   162   164     1 
  159   162   179     1 
  163   162   164     1 
  163   162   179     1 
  164   162   179     1 
  162   164   165     1 
  164   165   166     1 
  164   165   167     1 
  164   165   181     1 
  166   165   167     1 
  166   165   181     1 
  167   165   181     1 
  165   167   168     1 
  165   167   177     1 
  168   167   177     1 
  167   168   169     1 
  167   168   170     1 
  169   168   170     1 
  168   170   171     1 
  168   170   172     1 
  171   170   172     1 
  170   172   173     1 
  170   172   176     1 
  173   172   176     1 
  172   173   174     1 
  172   173   175     1 
  174   173   175     1 
  172   176   177     1 
  167   177   176     1 
  167   177   178     1 
  176   177   178     1 
  162   179   180     1 
  162   179   181     1 
  162   179   185     1 
  180   179   181     1 
  180   179   185     1 
  181   179   185     1 
  165   181   179     1 
  165   181   182     1 
  165   181   183     1 
  179   181   182     1 
  179   181   183     1 
  182   181   183     1 
  181   183   184     1 
  179   185   186     1 
  185   186   187     1 
  185   186   188     1 
  185   186   189     1 
  187   186   188     1 
  187   186   189     1 
  188   186   189     1 
  186   189   190     1 
  189   190   191     1 
  189   190   192     1 
  189   190   193     1 
  191   190   192     1 
  191   190   193     1 
  192   190   193     1 
  190   193   194     1 
  190   193   195     1 
  190   193   209     1 
  194   193   195     1 
  194   193   209     1 
  195   193   209     1 
  193   195   196     1 
  195   196   197     1 
  195   196   198     1 
  195   196   211     1 
  197   196   198     1 
  197   196   211     1 
  198   196   211     1 
  196   198   199     1 
  196   198   207     1 
  199   198   207     1 
  198   199   200     1 
  198   199   201     1 
  200   199   201     1 
  199   201   202     1 
  199   201   203     1 
  202   201   203     1 
  201   203   204     1 
  201   203   205     1 
  204   203   205     1 
  203   205   206     1 
  203   205   207     1 
  206   205   207     1 
  198   207   205     1 
  198   207   208     1 
  205   207   208     1 
  193   209   210     1 
  193   209   211     1 
  193   209   215     1 
  210   209   211     1 
  210   209   215     1 
  211   209   215     1 
  196   211   209     1 
  196   211   212     1 
  196   211   213     1 
  209   211   212     1 
  209   211   213     1 
  212   211   213     1 
  211   213   214     1 
  209   215   216     1 
  215   216   217     1 
  215   216   218     1 
  215   216   219     1 
  217   216   218     1 
  217   216   219     1 
  218   216   219     1 
  216   219   220     1 
  219   220   221     1 
  219   220   222     1 
  219   220   223     1 
  221   220   222     1 
  221   220   223     1 
  222   220   223     1 
  220   223   224     1 
  220   223   225     1 
  220   223   242     1 
  224   223   225     1 
  224   223   242     1 
  225   223   242     1 
  223   225   226     1 
  225   226   227     1 
  225   226   228     1 
  225   226   244     1 
  227   226   228     1 
  227   226   244     1 
  228   226   244     1 
  226   228   229     1 
  226   228   241     1 
  229   228   241     1 
  228   229   230     1 
  228   229   231     1 
  230   229   231     1 
  229   231   232     1 
  231   232   233     1 
  231   232   241     1 
  233   232   241     1 
  232   233   234     1 
  232   233   237     1 
  234   233   237     1 
  233   234   235     1 
  233   234   236     1 
  235   234   236     1 
  233   237   238     1 
  237   238   239     1 
  237   238   240     1 
  239   238   240     1 
  238   240   241     1 
  228   241   232     1 
  228   241   240     1 
  232   241   240     1 
  223   242   243     1 
  223   242   244     1 
  223   242   248     1 
  243   242   244     1 
  243   242   248     1 
  244   242   248     1 
  226   244   242     1 
  226   244   245     1 
  226   244   246     1 
  242   244   245     1 
  242   244   246     1 
  245   244   246     1 
  244   246   247     1 
  242   248   249     1 
  248   249   250     1 
  248   249   251     1 
  248   249   252     1 
  250   249   251     1 
  250   249   252     1 
  251   249   252     1 
  249   252   253     1 
  252   253   254     1 
  252   253   255     1 
  252   253   256     1 
  254   253   255     1 
  254   253   256     1 
  255   253   256     1 
  253   256   257     1 
  253   256   258     1 
  253   256   275     1 
  257   256   258     1 
  257   256   275     1 
  258   256   275     1 
  256   258   259     1 
  258   259   260     1 
  258   259   261     1 
  258   259   277     1 
  260   259   261     1 
  260   259   277     1 
  261   259   277     1 
  259   261   262     1 
  259   261   274     1 
  262   261   274     1 
  261   262   263     1 
  261   262   264     1 
  263   262   264     1 
  262   264   265     1 
  264   265   266     1 
  264   265   274     1 
  266   265   274     1 
  265   266   267     1 
  265   266   270     1 
  267   266   270     1 
  266   267   268     1 
  266   267   269     1 
  268   267   269     1 
  266   270   271     1 
  270   271   272     1 
  270   271   273     1 
  272   271   273     1 
  271   273   274     1 
  261   274   265     1 
  261   274   273     1 
  265   274   273     1 
  256   275   276     1 
  256   275   277     1 
  256   275   281     1 
  276   275   277     1 
  276   275   281     1 
  277   275   281     1 
  259   277   275     1 
  259   277   278     1 
  259   277   279     1 
  275   277   278     1 
  275   277   279     1 
  278   277   279     1 
  277   279   280     1 
  275   281   282     1 
  281   282   283     1 
  281   282   284     1 
  281   282   285     1 
  283   282   284     1 
  283   282   285     1 
  284   282   285     1 
  282   285   286     1 
  285   286   287     1 
  285   286   288     1 
  285   286   289     1 
  287   286   288     1 
  287   286   289     1 
  288   286   289     1 
  286   289   290     1 
  286   289   291     1 
  286   289   305     1 
  290   289   291     1 
  290   289   305     1 
  291   289   305     1 
  289   291   292     1 
  291   292   293     1 
  291   292   294     1 
  291   292   307     1 
  293   292   294     1 
  293   292   307     1 
  294   292   307     1 
  292   294   295     1 
  292   294   303     1 
  295   294   303     1 
  294   295   296     1 
  294   295   297     1 
  296   295   297     1 
  295   297   298     1 
  295   297   299     1 
  298   297   299     1 
  297   299   300     1 
  297   299   301     1 
  300   299   301     1 
  299   301   302     1 
  299   301   303     1 
  302   301   303     1 
  294   303   301     1 
  294   303   304     1 
  301   303   304     1 
  289   305   306     1 
  289   305   307     1 
  289   305   311     1 
  306   305   307     1 
  306   305   311     1 
  307   305   311     1 
  292   307   305     1 
  292   307   308     1 
  292   307   309     1 
  305   307   308     1 
  305   307   309     1 
  308   307   309     1 
  307   309   310     1 
  305   311   312     1 
  311   312   313     1 
  311   312   314     1 
  311   312   315     1 
  313   312   314     1 
  313   312   315     1 
  314   312   315     1 
  312   315   316     1 
  315   316   317     1 
  315   316   318     1 
  315   316   319     1 
  317   316   318     1 
  317   316   319     1 
  318   316   319     1 
  316   319   320     1 
  316   319   321     1 
  316   319   338     1 
  320   319   321     1 
  320   319   338     1 
  321   319   338     1 
  319   321   322     1 
  321   322   323     1 
  321   322   324     1 
  321   322   340     1 
  323   322   324     1 
  323   322   340     1 
  324   322   340     1 
  322   324   325     1 
  322   324   337     1 
  325   324   337     1 
  324   325   326     1 
  324   325   327     1 
  326   325   327     1 
  325   327   328     1 
  327   328   329     1 
  327   328   337     1 
  329   328   337     1 
  328   329   330     1 
  328   329   333     1 
  330   329   333     1 
  329   330   331     1 
  329   330   332     1 
  331   330   332     1 
  329   333   334     1 
  333   334   335     1 
  333   334   336     1 
  335   334   336     1 
  334   336   337     1 
  324   337   328     1 
  324   337   336     1 
  328   337   336     1 
  319   338   339     1 
  319   338   340     1 
  319   338   344     1 
  339   338   340     1 
  339   338   344     1 
  340   338   344     1 
  322   340   338     1 
  322   340   341     1 
  322   340   342     1 
  338   340   341     1 
  338   340   342     1 
  341   340   342     1 
  340   342   343     1 
  338   344   345     1 
  344   345   346     1 
  344   345   347     1 
  344   345   348     1 
  346   345   347     1 
  346   345   348     1 
  347   345   348     1 
  345   348   349     1 
  348   349   350     1 
  348   349   351     1 
  348   349   352     1 
  350   349   351     1 
  350   349   352     1 
  351   349   352     1 
  349   352   353     1 
  349   352   354     1 
  349   352   368     1 
  353   352   354     1 
  353   352   368     1 
  354   352   368     1 
  352   354   355     1 
  354   355   356     1 
  354   355   357     1 
  354   355   370     1 
  356   355   357     1 
  356   355   370     1 
  357   355   370     1 
  355   357   358     1 
  355   357   366     1 
  358   357   366     1 
  357   358   359     1 
  357   358   360     1 
  359   358   360     1 
  358   360   361     1 
  358   360   362     1 
  361   360   362     1 
  360   362   363     1 
  360   362   364     1 
  363   362   364     1 
  362   364   365     1 
  362   364   366     1 
  365   364   366     1 
  357   366   364     1 
  357   366   367     1 
  364   366   367     1 
  352   368   369     1 
  352   368   370     1 
  352   368   374     1 
  369   368   370     1 
  369   368   374     1 
  370   368   374     1 
  355   370   368     1 
  355   370   371     1 
  355   370   372     1 
  368   370   371     1 
  368   370   372     1 
  371   370   372     1 
  370   372   373     1 
  368   374   375     1 
  374   375   376     1 
  374   375   377     1 
  374   375   378     1 
  376   375   377     1 
  376   375   378     1 
  377   375   378     1 
  375   378   379     1 
  378   379   380     1 
  378   379   381     1 
  378   379   382     1 
  380   379   381     1 
  380   379   382     1 
  381   379   382     1 
  379   382   383     1 
  379   382   384     1 
  379   382   402     1 
  383   382   384     1 
  383   382   402     1 
  384   382   402     1 
  382   384   385     1 
  384   385   386     1 
  384   385   387     1 
  384   385   404     1 
  386   385   387     1 
  386   385   404     1 
  387   385   404     1 
  385   387   388     1 
  385   387   401     1 
  388   387   401     1 
  387   388   389     1 
  387   388   390     1 
  389   388   390     1 
  388   390   391     1 
  390   391   392     1 
  390   391   401     1 
  392   391   401     1 
  391   392   393     1 
  391   392   394     1 
  393   392   394     1 
  392   394   395     1 
  392   394   396     1 
  395   394   396     1 
  394   396   397     1 
  394   396   400     1 
  397   396   400     1 
  396   397   398     1 
  396   397   399     1 
  398   397   399     1 
  396   400   401     1 
  387   401   391     1 
  387   401   400     1 
  391   401   400     1 
  382   402   403     1 
  382   402   404     1 
  382   402   408     1 
  403   402   404     1 
  403   402   408     1 
  404   402   408     1 
  385   404   402     1 
  385   404   405     1 
  385   404   406     1 
  402   404   405     1 
  402   404   406     1 
  405   404   406     1 
  404   406   407     1 
  402   408   409     1 
  408   409   410     1 
  408   409   411     1 
  408   409   412     1 
  410   409   411     1 
  410   409   412     1 
  411   409   412     1 
  409   412   413     1 
  412   413   414     1 
  412   413   415     1 
  412   413   416     1 
  414   413   415     1 
  414   413   416     1 
  415   413   416     1 
  413   416   417     1 
  413   416   418     1 
  413   416   435     1 
  417   416   418     1 
  417   416   435     1 
  418   416   435     1 
  416   418   419     1 
  418   419   420     1 
  418   419   421     1 
  418   419   437     1 
  420   419   421     1 
  420   419   437     1 
  421   419   437     1 
  419   421   422     1 
  419   421   434     1 
  422   421   434     1 
  421   422   423     1 
  421   422   424     1 
  423   422   424     1 
  422   424   425     1 
  424   425   426     1 
  424   425   434     1 
  426   425   434     1 
  425   426   427     1 
  425   426   430     1 
  427   426   430     1 
  426   427   428     1 
  426   427   429     1 
  428   427   429     1 
  426   430   431     1 
  430   431   432     1 
  430   431   433     1 
  432   431   433     1 
  431   433   434     1 
  421   434   425     1 
  421   434   433     1 
  425   434   433     1 
  416   435   436     1 
  416   435   437     1 
  416   435   441     1 
  436   435   437     1 
  436   435   441     1 
  437   435   441     1 
  419   437   435     1 
  419   437   438     1 
  419   437   439     1 
  435   437   438     1 
  435   437   439     1 
  438   437   439     1 
  437   439   440     1 
  435   441   442     1 
  441   442   443     1 
  441   442   444     1 
  441   442   445     1 
  443   442   444     1 
  443   442   445     1 
  444   442   445     1 
  442   445   446     1 
  445   446   447     1 
  445   446   448     1 
  445   446   449     1 
  447   446   448     1 
  447   446   449     1 
  448   446   449     1 
  446   449   450     1 
  446   449   451     1 
  446   449   468     1 
  450   449   451     1 
  450   449   468     1 
  451   449   468     1 
  449   451   452     1 
  451   452   453     1 
  451   452   454     1 
  451   452   470     1 
  453   452   454     1 
  453   452   470     1 
  454   452   470     1 
  452   454   455     1 
  452   454   467     1 
  455   454   467     1 
  454   455   456     1 
  454   455   457     1 
  456   455   457     1 
  455   457   458     1 
  457   458   459     1 
  457   458   467     1 
  459   458   467     1 
  458   459   460     1 
  458   459   463     1 
  460   459   463     1 
  459   460   461     1 
  459   460   462     1 
  461   460   462     1 
  459   463   464     1 
  463   464   465     1 
  463   464   466     1 
  465   464   466     1 
  464   466   467     1 
  454   467   458     1 
  454   467   466     1 
  458   467   466     1 
  449   468   469     1 
  449   468   470     1 
  449   468   474     1 
  469   468   470     1 
  469   468   474     1 
  470   468   474     1 
  452   470   468     1 
  452   470   471     1 
  452   470   472     1 
  468   470   471     1 
  468   470   472     1 
  471   470   472     1 
  470   472   473     1 
  468   474   475     1 
  474   475   476     1 
  474   475   477     1 
  474   475   478     1 
  476   475   477     1 
  476   475   478     1 
  477   475   478     1 
  475   478   479     1 
  478   479   480     1 
  478   479   481     1 
  478   479   482     1 
  480   479   481     1 
  480   479   482     1 
  481   479   482     1 
  479   482   483     1 
  479   482   484     1 
  479   482   498     1 
  483   482   484     1 
  483   482   498     1 
  484   482   498     1 
  482   484   485     1 
  484   485   486     1 
  484   485   487     1 
  484   485   500     1 
  486   485   487     1 
  486   485   500     1 
  487   485   500     1 
  485   487   488     1 
  485   487   496     1 
  488   487   496     1 
  487   488   489     1 
  487   488   490     1 
  489   488   490     1 
  488   490   491     1 
  488   490   492     1 
  491   490   492     1 
  490   492   493     1 
  490   492   494     1 
  493   492   494     1 
  492   494   495     1 
  492   494   496     1 
  495   494   496     1 
  487   496   494     1 
  487   496   497     1 
  494   496   497     1 
  482   498   499     1 
  482   498   500     1 
  482   498   504     1 
  499   498   500     1 
  499   498   504     1 
  500   498   504     1 
  485   500   498     1 
  485   500   501     1 
  485   500   502     1 
  498   500   501     1 
  498   500   502     1 
  501   500   502     1 
  500   502   503     1 
  498   504   505     1 
  504   505   506     1 
  504   505   507     1 
  504   505   508     1 
  506   505   507     1 
  506   505   508     1 
  507   505   508     1 
  505   508   509     1 
  508   509   510     1 
  508   509   511     1 
  508   509   512     1 
  510   509   511     1 
  510   509   512     1 
  511   509   512     1 
  509   512   513     1 
  509   512   514     1 
  509   512   529     1 
  513   512   514     1 
  513   512   529     1 
  514   512   529     1 
  512   514   515     1 
  514   515   516     1 
  514   515   517     1 
  514   515   531     1 
  516   515   517     1 
  516   515   531     1 
  517   515   531     1 
  515   517   518     1 
  515   517   527     1 
  518   517   527     1 
  517   518   519     1 
  517   518   520     1 
  519   518   520     1 
  518   520   521     1 
  518   520   522     1 
  521   520   522     1 
  520   522   523     1 
  520   522   526     1 
  523   522   526     1 
  522   523   524     1 
  522   523   525     1 
  524   523   525     1 
  522   526   527     1 
  517   527   526     1 
  517   527   528     1 
  526   527   528     1 
  512   529   530     1 
  512   529   531     1 
  512   529   535     1 
  530   529   531     1 
  530   529   535     1 
  531   529   535     1 
  515   531   529     1 
  515   531   532     1 
  515   531   533     1 
  529   531   532     1 
  529   531   533     1 
  532   531   533     1 
  531   533   534     1 
  529   535   536     1 
  535   536   537     1 
  535   536   538     1 
  535   536   539     1 
  537   536   538     1 
  537   536   539     1 
  538   536   539     1 
  536   539   540     1 
  539   540   541     1 
  539   540   542     1 
  539   540   543     1 
  541   540   542     1 
  541   540   543     1 
  542   540   543     1 
  540   543   544     1 
  540   543   545     1 
  540   543   560     1 
  544   543   545     1 
  544   543   560     1 
  545   543   560     1 
  543   545   546     1 
  545   546   547     1 
  545   546   548     1 
  545   546   562     1 
  547   546   548     1 
  547   546   562     1 
  548   546   562     1 
  546   548   549     1 
  546   548   558     1 
  549   548   558     1 
  548   549   550     1 
  548   549   551     1 
  550   549   551     1 
  549   551   552     1 
  549   551   553     1 
  552   551   553     1 
  551   553   554     1 
  551   553   557     1 
  554   553   557     1 
  553   554   555     1 
  553   554   556     1 
  555   554   556     1 
  553   557   558     1 
  548   558   557     1 
  548   558   559     1 
  557   558   559     1 
  543   560   561     1 
  543   560   562     1 
  543   560   566     1 
  561   560   562     1 
  561   560   566     1 
  562   560   566     1 
  546   562   560     1 
  546   562   563     1 
  546   562   564     1 
  560   562   563     1 
  560   562   564     1 
  563   562   564     1 
  562   564   565     1 
  560   566   567     1 
  566   567   568     1 
  566   567   569     1 
  566   567   570     1 
  568   567   569     1 
  568   567   570     1 
  569   567   570     1 
  567   570   571     1 
  570   571   572     1 
  570   571   573     1 
  570   571   574     1 
  572   571   573     1 
  572   571   574     1 
  573   571   574     1 
  571   574   575     1 
  571   574   576     1 
  571   574   590     1 
  575   574   576     1 
  575   574   590     1 
  576   574   590     1 
  574   576   577     1 
  576   577   578     1 
  576   577   579     1 
  576   577   592     1 
  578   577   579     1 
  578   577   592     1 
  579   577   592     1 
  577   579   580     1 
  577   579   588     1 
  580   579   588     1 
  579   580   581     1 
  579   580   582     1 
  581   580   582     1 
  580   582   583     1 
  580   582   584     1 
  583   582   584     1 
  582   584   585     1 
  582   584   586     1 
  585   584   586     1 
  584   586   587     1 
  584   586   588     1 
  587   586   588     1 
  579   588   586     1 
  579   588   589     1 
  586   588   589     1 
  574   590   591     1 
  574   590   592     1 
  574   590   596     1 
  591   590   592     1 
  591   590   596     1 
  592   590   596     1 
  577   592   590     1 
  577   592   593     1 
  577   592   594     1 
  590   592   593     1 
  590   592   594     1 
  593   592   594     1 
  592   594   595     1 
  590   596   597     1 
  596   597   598     1 
  596   597   599     1 
  596   597   600     1 
  598   597   599     1 
  598   597   600     1 
  599   597   600     1 
  597   600   601     1 
  600   601   602     1 
  600   601   603     1 
  600   601   604     1 
  602   601   603     1 
  602   601   604     1 
  603   601   604     1 
  601   604   605     1 
  601   604   606     1 
  601   604   623     1 
  605   604   606     1 
  605   604   623     1 
  606   604   623     1 
  604   606   607     1 
  606   607   608     1 
  606   607   609     1 
  606   607   625     1 
  608   607   609     1 
  608   607   625     1 
  609   607   625     1 
  607   609   610     1 
  607   609   622     1 
  610   609   622     1 
  609   610   611     1 
  609   610   612     1 
  611   610   612     1 
  610   612   613     1 
  612   613   614     1 
  612   613   622     1 
  614   613   622     1 
  613   614   615     1 
  613   614   618     1 
  615   614   618     1 
  614   615   616     1 
  614   615   617     1 
  616   615   617     1 
  614   618   619     1 
  618   619   620     1 
  618   619   621     1 
  620   619   621     1 
  619   621   622     1 
  609   622   613     1 
  609   622   621     1 
  613   622   621     1 
  604   623   624     1 
  604   623   625     1 
  604   623   629     1 
  624   623   625     1 
  624   623   629     1 
  625   623   629     1 
  607   625   623     1 
  607   625   626     1 
  607   625   627     1 
  623   625   626     1 
  623   625   627     1 
  626   625   627     1 
  625   627   628     1 
  623   629   630     1 
  629   630   631     1 
  629   630   632     1 
  629   630   633     1 
  631   630   632     1 
  631   630   633     1 
  632   630   633     1 
  630   633   634     1 
  633   634   635     1 
  633   634   636     1 
  633   634   637     1 
  635   634   636     1 
  635   634   637     1 
  636   634   637     1 
  634   637   638     1 
  634   637   639     1 
  634   637   653     1 
  638   637   639     1 
  638   637   653     1 
  639   637   653     1 
  637   639   640     1 
  639   640   641     1 
  639   640   642     1 
  639   640   655     1 
  641   640   642     1 
  641   640   655     1 
  642   640   655     1 
  640   642   643     1 
  640   642   651     1 
  643   642   651     1 
  642   643   644     1 
  642   643   645     1 
  644   643   645     1 
  643   645   646     1 
  643   645   647     1 
  646   645   647     1 
  645   647   648     1 
  645   647   649     1 
  648   647   649     1 
  647   649   650     1 
  647   649   651     1 
  650   649   651     1 
  642   651   649     1 
  642   651   652     1 
  649   651   652     1 
  637   653   654     1 
  637   653   655     1 
  637   653   659     1 
  654   653   655     1 
  654   653   659     1 
  655   653   659     1 
  640   655   653     1 
  640   655   656     1 
  640   655   657     1 
  653   655   656     1 
  653   655   657     1 
  656   655   657     1 
  655   657   658     1 
  653   659   660     1 

[ dihedrals ]
;  ai    aj    ak    al funct            c0            c1            c2            c3            c4            c5
    2     1     3     4     9 
    2     1     3     5     9 
    2     1     3     6     9 
    1     3     6     7     9 
    1     3     6     8     9 
    1     3     6    26     9 
    4     3     6     7     9 
    4     3     6     8     9 
    4     3     6    26     9 
    5     3     6     7     9 
    5     3     6     8     9 
    5     3     6    26     9 
    3     6     8     9     9 
    7     6     8     9     9 
   26     6     8     9     9 
    3     6    26    27     9 
    3     6    26    28     9 
    3     6    26    32     9 
    7     6    26    27     9 
    7     6    26    28     9 
    7     6    26    32     9 
    8     6    26    27     9 
    8     6    26    28     9 
    8     6    26    32     9 
    6     8     9    10     9 
    6     8     9    11     9 
    6     8     9    28     9 
    8     9    11    12     9 
    8     9    11    25     9 
   10     9    11    12     9 
   10     9    11    25     9 
   28     9    11    12     9 
   28     9    11    25     9 
    8     9    28    26     9 
    8     9    28    29     9 
    8     9    28    30     9 
   10     9    28    26     9 
   10     9    28    29     9 
   10     9    28    30     9 
   11     9    28    26     9 
   11     9    28    29     9 
   11     9    28    30     9 
    9    11    12    13     9 
    9    11    12    14     9 
   25    11    12    13     9 
   25    11    12    14     9 
    9    11    25    15     9 
    9    11    25    24     9 
   12    11    25    15     9 
   12    11    25    24     9 
   11    12    14    15     9 
   13    12    14    15     9 
   12    14    15    16     9 
   12    14    15    25     9 
   14    15    16    17     9 
   14    15    16    18     9 
   25    15    16    17     9 
   25    15    16    18     9 
   14    15    25    11     9 
   14    15    25    24     9 
   16    15    25    11     9 
   16    15    25    24     9 
   15    16    18    19     9 
   15    16    18    20     9 
   17    16    18    19     9 
   17    16    18    20     9 
   16    18    20    21     9 
   16    18    20    24     9 
   19    18    20    21     9 
   19    18    20    24     9 
   18    20    21    22     9 
   18    20    21    23     9 
   24    20    21    22     9 
   24    20    21    23     9 
   18    20    24    25     9 
   21    20    24    25     9 
   20    24    25    11     9 
   20    24    25    15     9 
    6    26    28     9     9 
    6    26    28    29     9 
    6    26    28    30     9 
   27    26    28     9     9 
   27    26    28    29     9 
   27    26    28    30     9 
   32    26    28     9     9 
   32    26    28    29     9 
   32    26    28    30     9 
    6    26    32    33     9 
   27    26    32    33     9 
   28    26    32    33     9 
    9    28    30    31     9 
   26    28    30    31     9 
   29    28    30    31     9 
   26    32    33    34     9 
   26    32    33    35     9 
   26    32    33    36     9 
   32    33    36    37     9 
   34    33    36    37     9 
   35    33    36    37     9 
   33    36    37    38     9 
   33    36    37    39     9 
   33    36    37    40     9 
   36    37    40    41     9 
   36    37    40    42     9 
   36    37    40    56     9 
   38    37    40    41     9 
   38    37    40    42     9 
   38    37    40    56     9 
   39    37    40    41     9 
   39    37    40    42     9 
   39    37    40    56     9 
   37    40    42    43     9 
   41    40    42    43     9 
   56    40    42    43     9 
   37    40    56    57     9 
   37    40    56    58     9 
   37    40    56    62     9 
   41    40    56    57     9 
   41    40    56    58     9 
   41    40    56    62     9 
   42    40    56    57     9 
   42    40    56    58     9 
   42    40    56    62     9 
   40    42    43    44     9 
   40    42    43    45     9 
   40    42    43    58     9 
   42    43    45    46     9 
   42    43    45    54     9 
   44    43    45    46     9 
   44    43    45    54     9 
   58    43    45    46     9 
   58    43    45    54     9 
   42    43    58    56     9 
   42    43    58    59     9 
   42    43    58    60     9 
   44    43    58    56     9 
   44    43    58    59     9 
   44    43    58    60     9 
   45    43    58    56     9 
   45    43    58    59     9 
   45    43    58    60     9 
   43    45    46    47     9 
   43    45    46    48     9 
   54    45    46    47     9 
   54    45    46    48     9 
   43    45    54    52     9 
   43    45    54    55     9 
   46    45    54    52     9 
   46    45    54    55     9 
   45    46    48    49     9 
   45    46    48    50     9 
   47    46    48    49     9 
   47    46    48    50     9 
   46    48    50    51     9 
   46    48    50    52     9 
   49    48    50    51     9 
   49    48    50    52     9 
   48    50    52    53     9 
   48    50    52    54     9 
   51    50    52    53     9 
   51    50    52    54     9 
   50    52    54    45     9 
   50    52    54    55     9 
   53    52    54    45     9 
   53    52    54    55     9 
   40    56    58    43     9 
   40    56    58    59     9 
   40    56    58    60     9 
   57    56    58    43     9 
   57    56    58    59     9 
   57    56    58    60     9 
   62    56    58    43     9 
   62    56    58    59     9 
   62    56    58    60     9 
   40    56    62    63     9 
   57    56    62    63     9 
   58    56    62    63     9 
   43    58    60    61     9 
   56    58    60    61     9 
   59    58    60    61     9 
   56    62    63    64     9 
   56    62    63    65     9 
   56    62    63    66     9 
   62    63    66    67     9 
   64    63    66    67     9 
   65    63    66    67     9 
   63    66    67    68     9 
   63    66    67    69     9 
   63    66    67    70     9 
   66    67    70    71     9 
   66    67    70    72     9 
   66    67    70    87     9 
   68    67    70    71     9 
   68    67    70    72     9 
   68    67    70    87     9 
   69    67    70    71     9 
   69    67    70    72     9 
   69    67    70    87     9 
   67    70    72    73     9 
   71    70    72    73     9 
   87    70    72    73     9 
   67    70    87    88     9 
   67    70    87    89     9 
   67    70    87    93     9 
   71    70    87    88     9 
   71    70    87    89     9 
   71    70    87    93     9 
   72    70    87    88     9 
   72    70    87    89     9 
   72    70    87    93     9 
   70    72    73    74     9 
   70    72    73    75     9 
   70    72    73    89     9 
   72    73    75    76     9 
   72    73    75    85     9 
   74    73    75    76     9 
   74    73    75    85     9 
   89    73    75    76     9 
   89    73    75    85     9 
   72    73    89    87     9 
   72    73    89    90     9 
   72    73    89    91     9 
   74    73    89    87     9 
   74    73    89    90     9 
   74    73    89    91     9 
   75    73    89    87     9 
   75    73    89    90     9 
   75    73    89    91     9 
   73    75    76    77     9 
   73    75    76    78     9 
   85    75    76    77     9 
   85    75    76    78     9 
   73    75    85    84     9 
   73    75    85    86     9 
   76    75    85    84     9 
   76    75    85    86     9 
   75    76    78    79     9 
   75    76    78    80     9 
   77    76    78    79     9 
   77    76    78    80     9 
   76    78    80    81     9 
   76    78    80    84     9 
   79    78    80    81     9 
   79    78    80    84     9 
   78    80    81    82     9 
   78    80    81    83     9 
   84    80    81    82     9 
   84    80    81    83     9 
   78    80    84    85     9 
   81    80    84    85     9 
   80    84    85    75     9 
   80    84    85    86     9 
   70    87    89    73     9 
   70    87    89    90     9 
   70    87    89    91     9 
   88    87    89    73     9 
   88    87    89    90     9 
   88    87    89    91     9 
   93    87    89    73     9 
   93    87    89    90     9 
   93    87    89    91     9 
   70    87    93    94     9 
   88    87    93    94     9 
   89    87    93    94     9 
   73    89    91    92     9 
   87    89    91    92     9 
   90    89    91    92     9 
   87    93    94    95     9 
   87    93    94    96     9 
   87    93    94    97     9 
   93    94    97    98     9 
   95    94    97    98     9 
   96    94    97    98     9 
   94    97    98    99     9 
   94    97    98   100     9 
   94    97    98   101     9 
   97    98   101   102     9 
   97    98   101   103     9 
   97    98   101   117     9 
   99    98   101   102     9 
   99    98   101   103     9 
   99    98   101   117     9 
  100    98   101   102     9 
  100    98   101   103     9 
  100    98   101   117     9 
   98   101   103   104     9 
  102   101   103   104     9 
  117   101   103   104     9 
   98   101   117   118     9 
   98   101   117   119     9 
   98   101   117   123     9 
  102   101   117   118     9 
  102   101   117   119     9 
  102   101   117   123     9 
  103   101   117   118     9 
  103   101   117   119     9 
  103   101   117   123     9 
  101   103   104   105     9 
  101   103   104   106     9 
  101   103   104   119     9 
  103   104   106   107     9 
  103   104   106   115     9 
  105   104   106   107     9 
  105   104   106   115     9 
  119   104   106   107     9 
  119   104   106   115     9 
  103   104   119   117     9 
  103   104   119   120     9 
  103   104   119   121     9 
  105   104   119   117     9 
  105   104   119   120     9 
  105   104   119   121     9 
  106   104   119   117     9 
  106   104   119   120     9 
  106   104   119   121     9 
  104   106   107   108     9 
  104   106   107   109     9 
  115   106   107   108     9 
  115   106   107   109     9 
  104   106   115   113     9 
  104   106   115   116     9 
  107   106   115   113     9 
  107   106   115   116     9 
  106   107   109   110     9 
  106   107   109   111     9 
  108   107   109   110     9 
  108   107   109   111     9 
  107   109   111   112     9 
  107   109   111   113     9 
  110   109   111   112     9 
  110   109   111   113     9 
  109   111   113   114     9 
  109   111   113   115     9 
  112   111   113   114     9 
  112   111   113   115     9 
  111   113   115   106     9 
  111   113   115   116     9 
  114   113   115   106     9 
  114   113   115   116     9 
  101   117   119   104     9 
  101   117   119   120     9 
  101   117   119   121     9 
  118   117   119   104     9 
  118   117   119   120     9 
  118   117   119   121     9 
  123   117   119   104     9 
  123   117   119   120     9 
  123   117   119   121     9 
  101   117   123   124     9 
  118   117   123   124     9 
  119   117   123   124     9 
  104   119   121   122     9 
  117   119   121   122     9 
  120   119   121   122     9 
  117   123   124   125     9 
  117   123   124   126     9 
  117   123   124   127     9 
  123   124   127   128     9 
  125   124   127   128     9 
  126   124   127   128     9 
  124   127   128   129     9 
  124   127   128   130     9 
  124   127   128   131     9 
  127   128   131   132     9 
  127   128   131   133     9 
  127   128   131   148     9 
  129   128   131   132     9 
  129   128   131   133     9 
  129   128   131   148     9 
  130   128   131   132     9 
  130   128   131   133     9 
  130   128   131   148     9 
  128   131   133   134     9 
  132   131   133   134     9 
  148   131   133   134     9 
  128   131   148   149     9 
  128   131   148   150     9 
  128   131   148   154     9 
  132   131   148   149     9 
  132   131   148   150     9 
  132   131   148   154     9 
  133   131   148   149     9 
  133   131   148   150     9 
  133   131   148   154     9 
  131   133   134   135     9 
  131   133   134   136     9 
  131   133   134   150     9 
  133   134   136   137     9 
  133   134   136   146     9 
  135   134   136   137     9 
  135   134   136   146     9 
  150   134   136   137     9 
  150   134   136   146     9 
  133   134   150   148     9 
  133   134   150   151     9 
  133   134   150   152     9 
  135   134   150   148     9 
  135   134   150   151     9 
  135   134   150   152     9 
  136   134   150   148     9 
  136   134   150   151     9 
  136   134   150   152     9 
  134   136   137   138     9 
  134   136   137   139     9 
  146   136   137   138     9 
  146   136   137   139     9 
  134   136   146   145     9 
  134   136   146   147     9 
  137   136   146   145     9 
  137   136   146   147     9 
  136   137   139   140     9 
  136   137   139   141     9 
  138   137   139   140     9 
  138   137   139   141     9 
  137   139   141   142     9 
  137   139   141   145     9 
  140   139   141   142     9 
  140   139   141   145     9 
  139   141   142   143     9 
  139   141   142   144     9 
  145   141   142   143     9 
  145   141   142   144     9 
  139   141   145   146     9 
  142   141   145   146     9 
  141   145   146   136     9 
  141   145   146   147     9 
  131   148   150   134     9 
  131   148   150   151     9 
  131   148   150   152     9 
  149   148   150   134     9 
  149   148   150   151     9 
  149   148   150   152     9 
  154   148   150   134     9 
  154   148   150   151     9 
  154   148   150   152     9 
  131   148   154   155     9 
  149   148   154   155     9 
  150   148   154   155     9 
  134   150   152   153     9 
  148   150   152   153     9 
  151   150   152   153     9 
  148   154   155   156     9 
  148   154   155   157     9 
  148   154   155   158     9 
  154   155   158   159     9 
  156   155   158   159     9 
  157   155   158   159     9 
  155   158   159   160     9 
  155   158   159   161     9 
  155   158   159   162     9 
  158   159   162   163     9 
  158   159   162   164     9 
  158   159   162   179     9 
  160   159   162   163     9 
  160   159   162   164     9 
  160   159   162   179     9 
  161   159   162   163     9 
  161   159   162   164     9 
  161   159   162   179     9 
  159   162   164   165     9 
  163   162   164   165     9 
  179   162   164   165     9 
  159   162   179   180     9 
  159   162   179   181     9 
  159   162   179   185     9 
  163   162   179   180     9 
  163   162   179   181     9 
  163   162   179   185     9 
  164   162   179   180     9 
  164   162   179   181     9 
  164   162   179   185     9 
  162   164   165   166     9 
  162   164   165   167     9 
  162   164   165   181     9 
  164   165   167   168     9 
  164   165   167   177     9 
  166   165   167   168     9 
  166   165   167   177     9 
  181   165   167   168     9 
  181   165   167   177     9 
  164   165   181   179     9 
  164   165   181   182     9 
  164   165   181   183     9 
  166   165   181   179     9 
  166   165   181   182     9 
  166   165   181   183     9 
  167   165   181   179     9 
  167   165   181   182     9 
  167   165   181   183     9 
  165   167   168   169     9 
  165   167   168   170     9 
  177   167   168   169     9 
  177   167   168   170     9 
  165   167   177   176     9 
  165   167   177   178     9 
  168   167   177   176     9 
  168   167   177   178     9 
  167   168   170   171     9 
  167   168   170   172     9 
  169   168   170   171     9 
  169   168   170   172     9 
  168   170   172   173     9 
  168   170   172   176     9 
  171   170   172   173     9 
  171   170   172   176     9 
  170   172   173   174     9 
  170   172   173   175     9 
  176   172   173   174     9 
  176   172   173   175     9 
  170   172   176   177     9 
  173   172   176   177     9 
  172   176   177   167     9 
  172   176   177   178     9 
  162   179   181   165     9 
  162   179   181   182     9 
  162   179   181   183     9 
  180   179   181   165     9 
  180   179   181   182     9 
  180   179   181   183     9 
  185   179   181   165     9 
  185   179   181   182     9 
  185   179   181   183     9 
  162   179   185   186     9 
  180   179   185   186     9 
  181   179   185   186     9 
  165   181   183   184     9 
  179   181   183   184     9 
  182   181   183   184     9 
  179   185   186   187     9 
  179   185   186   188     9 
  179   185   186   189     9 
  185   186   189   190     9 
  187   186   189   190     9 
  188   186   189   190     9 
  186   189   190   191     9 
  186   189   190   192     9 
  186   189   190   193     9 
  189   190   193   194     9 
  189   190   193   195     9 
  189   190   193   209     9 
  191   190   193   194     9 
  191   190   193   195     9 
  191   190   193   209     9 
  192   190   193   194     9 
  192   190   193   195     9 
  192   190   193   209     9 
  190   193   195   196     9 
  194   193   195   196     9 
  209   193   195   196     9 
  190   193   209   210     9 
  190   193   209   211     9 
  190   193   209   215     9 
  194   193   209   210     9 
  194   193   209   211     9 
  194   193   209   215     9 
  195   193   209   210     9 
  195   193   209   211     9 
  195   193   209   215     9 
  193   195   196   197     9 
  193   195   196   198     9 
  193   195   196   211     9 
  195   196   198   199     9 
  195   196   198   207     9 
  197   196   198   199     9 
  197   196   198   207     9 
  211   196   198   199     9 
  211   196   198   207     9 
  195   196   211   209     9 
  195   196   211   212     9 
  195   196   211   213     9 
  197   196   211   209     9 
  197   196   211   212     9 
  197   196   211   213     9 
  198   196   211   209     9 
  198   196   211   212     9 
  198   196   211   213     9 
  196   198   199   200     9 
  196   198   199   201     9 
  207   198   199   200     9 
  207   198   199   201     9 
  196   198   207   205     9 
  196   198   207   208     9 
  199   198   207   205     9 
  199   198   207   208     9 
  198   199   201   202     9 
  198   199   201   203     9 
  200   199   201   202     9 
  200   199   201   203     9 
  199   201   203   204     9 
  199   201   203   205     9 
  202   201   203   204     9 
  202   201   203   205     9 
  201   203   205   206     9 
  201   203   205   207     9 
  204   203   205   206     9 
  204   203   205   207     9 
  203   205   207   198     9 
  203   205   207   208     9 
  206   205   207   198     9 
  206   205   207   208     9 
  193   209   211   196     9 
  193   209   211   212     9 
  193   209   211   213     9 
  210   209   211   196     9 
  210   209   211   212     9 
  210   209   211   213     9 
  215   209   211   196     9 
  215   209   211   212     9 
  215   209   211   213     9 
  193   209   215   216     9 
  210   209   215   216     9 
  211   209   215   216     9 
  196   211   213   214     9 
  209   211   213   214     9 
  212   211   213   214     9 
  209   215   216   217     9 
  209   215   216   218     9 
  209   215   216   219     9 
  215   216   219   220     9 
  217   216   219   220     9 
  218   216   219   220     9 
  216   219   220   221     9 
  216   219   220   222     9 
  216   219   220   223     9 
  219   220   223   224     9 
  219   220   223   225     9 
  219   220   223   242     9 
  221   220   223   224     9 
  221   220   223   225     9 
  221   220   223   242     9 
  222   220   223   224     9 
  222   220   223   225     9 
  222   220   223   242     9 
  220   223   225   226     9 
  224   223   225   226     9 
  242   223   225   226     9 
  220   223   242   243     9 
  220   223   242   244     9 
  220   223   242   248     9 
  224   223   242   243     9 
  224   223   242   244     9 
  224   223   242   248     9 
  225   223   242   243     9 
  225   223   242   244     9 
  225   223   242   248     9 
  223   225   226   227     9 
  223   225   226   228     9 
  223   225   226   244     9 
  225   226   228   229     9 
  225   226   228   241     9 
  227   226   228   229     9 
  227   226   228   241     9 
  244   226   228   229     9 
  244   226   228   241     9 
  225   226   244   242     9 
  225   226   244   245     9 
  225   226   244   246     9 
  227   226   244   242     9 
  227   226   244   245     9 
  227   226   244   246     9 
  228   226   244   242     9 
  228   226   244   245     9 
  228   226   244   246     9 
  226   228   229   230     9 
  226   228   229   231     9 
  241   228   229   230     9 
  241   228   229   231     9 
  226   228   241   232     9 
  226   228   241   240     9 
  229   228   241   232     9 
  229   228   241   240     9 
  228   229   231   232     9 
  230   229   231   232     9 
  229   231   232   233     9 
  229   231   232   241     9 
  231   232   233   234     9 
  231   232   233   237     9 
  241   232   233   234     9 
  241   232   233   237     9 
  231   232   241   228     9 
  231   232   241   240     9 
  233   232   241   228     9 
  233   232   241   240     9 
  232   233   234   235     9 
  232   233   234   236     9 
  237   233   234   235     9 
  237   233   234   236     9 
  232   233   237   238     9 
  234   233   237   238     9 
  233   237   238   239     9 
  233   237   238   240     9 
  237   238   240   241     9 
  239   238   240   241     9 
  238   240   241   228     9 
  238   240   241   232     9 
  223   242   244   226     9 
  223   242   244   245     9 
  223   242   244   246     9 
  243   242   244   226     9 
  243   242   244   245     9 
  243   242   244   246     9 
  248   242   244   226     9 
  248   242   244   245     9 
  248   242   244   246     9 
  223   242   248   249     9 
  243   242   248   249     9 
  244   242   248   249     9 
  226   244   246   247     9 
  242   244   246   247     9 
  245   244   246   247     9 
  242   248   249   250     9 
  242   248   249   251     9 
  242   248   249   252     9 
  248   249   252   253     9 
  250   249   252   253     9 
  251   249   252   253     9 
  249   252   253   254     9 
  249   252   253   255     9 
  249   252   253   256     9 
  252   253   256   257     9 
  252   253   256   258     9 
  252   253   256   275     9 
  254   253   256   257     9 
  254   253   256   258     9 
  254   253   256   275     9 
  255   253   256   257     9 
  255   253   256   258     9 
  255   253   256   275     9 
  253   256   258   259     9 
  257   256   258   259     9 
  275   256   258   259     9 
  253   256   275   276     9 
  253   256   275   277     9 
  253   256   275   281     9 
  257   256   275   276     9 
  257   256   275   277     9 
  257   256   275   281     9 
  258   256   275   276     9 
  258   256   275   277     9 
  258   256   275   281     9 
  256   258   259   260     9 
  256   258   259   261     9 
  256   258   259   277     9 
  258   259   261   262     9 
  258   259   261   274     9 
  260   259   261   262     9 
  260   259   261   274     9 
  277   259   261   262     9 
  277   259   261   274     9 
  258   259   277   275     9 
  258   259   277   278     9 
  258   259   277   279     9 
  260   259   277   275     9 
  260   259   277   278     9 
  260   259   277   279     9 
  261   259   277   275     9 
  261   259   277   278     9 
  261   259   277   279     9 
  259   261   262   263     9 
  259   261   262   264     9 
  274   261   262   263     9 
  274   261   262   264     9 
  259   261   274   265     9 
  259   261   274   273     9 
  262   261   274   265     9 
  262   261   274   273     9 
  261   262   264   265     9 
  263   262   264   265     9 
  262   264   265   266     9 
  262   264   265   274     9 
  264   265   266   267     9 
  264   265   266   270     9 
  274   265   266   267     9 
  274   265   266   270     9 
  264   265   274   261     9 
  264   265   274   273     9 
  266   265   274   261     9 
  266   265   274   273     9 
  265   266   267   268     9 
  265   266   267   269     9 
  270   266   267   268     9 
  270   266   267   269     9 
  265   266   270   271     9 
  267   266   270   271     9 
  266   270   271   272     9 
  266   270   271   273     9 
  270   271   273   274     9 
  272   271   273   274     9 
  271   273   274   261     9 
  271   273   274   265     9 
  256   275   277   259     9 
  256   275   277   278     9 
  256   275   277   279     9 
  276   275   277   259     9 
  276   275   277   278     9 
  276   275   277   279     9 
  281   275   277   259     9 
  281   275   277   278     9 
  281   275   277   279     9 
  256   275   281   282     9 
  276   275   281   282     9 
  277   275   281   282     9 
  259   277   279   280     9 
  275   277   279   280     9 
  278   277   279   280     9 
  275   281   282   283     9 
  275   281   282   284     9 
  275   281   282   285     9 
  281   282   285   286     9 
  283   282   285   286     9 
  284   282   285   286     9 
  282   285   286   287     9 
  282   285   286   288     9 
  282   285   286   289     9 
  285   286   289   290     9 
  285   286   289   291     9 
  285   286   289   305     9 
  287   286   289   290     9 
  287   286   289   291     9 
  287   286   289   305     9 
  288   286   289   290     9 
  288   286   289   291     9 
  288   286   289   305     9 
  286   289   291   292     9 
  290   289   291   292     9 
  305   289   291   292     9 
  286   289   305   306     9 
  286   289   305   307     9 
  286   289   305   311     9 
  290   289   305   306     9 
  290   289   305   307     9 
  290   289   305   311     9 
  291   289   305   306     9 
  291   289   305   307     9 
  291   289   305   311     9 
  289   291   292   293     9 
  289   291   292   294     9 
  289   291   292   307     9 
  291   292   294   295     9 
  291   292   294   303     9 
  293   292   294   295     9 
  293   292   294   303     9 
  307   292   294   295     9 
  307   292   294   303     9 
  291   292   307   305     9 
  291   292   307   308     9 
  291   292   307   309     9 
  293   292   307   305     9 
  293   292   307   308     9 
  293   292   307   309     9 
  294   292   307   305     9 
  294   292   307   308     9 
  294   292   307   309     9 
  292   294   295   296     9 
  292   294   295   297     9 
  303   294   295   296     9 
  303   294   295   297     9 
  292   294   303   301     9 
  292   294   303   304     9 
  295   294   303   301     9 
  295   294   303   304     9 
  294   295   297   298     9 
  294   295   297   299     9 
  296   295   297   298     9 
  296   295   297   299     9 
  295   297   299   300     9 
  295   297   299   301     9 
  298   297   299   300     9 
  298   297   299   301     9 
  297   299   301   302     9 
  297   299   301   303     9 
  300   299   301   302     9 
  300   299   301   303     9 
  299   301   303   294     9 
  299   301   303   304     9 
  302   301   303   294     9 
  302   301   303   304     9 
  289   305   307   292     9 
  289   305   307   308     9 
  289   305   307   309     9 
  306   305   307   292     9 
  306   305   307   308     9 
  306   305   307   309     9 
  311   305   307   292     9 
  311   305   307   308     9 
  311   305   307   309     9 
  289   305   311   312     9 
  306   305   311   312     9 
  307   305   311   312     9 
  292   307   309   310     9 
  305   307   309   310     9 
  308   307   309   310     9 
  305   311   312   313     9 
  305   311   312   314     9 
  305   311   312   315     9 
  311   312   315   316     9 
  313   312   315   316     9 
  314   312   315   316     9 
  312   315   316   317     9 
  312   315   316   318     9 
  312   315   316   319     9 
  315   316   319   320     9 
  315   316   319   321     9 
  315   316   319   338     9 
  317   316   319   320     9 
  317   316   319   321     9 
  317   316   319   338     9 
  318   316   319   320     9 
  318   316   319   321     9 
  318   316   319   338     9 
  316   319   321   322     9 
  320   319   321   322     9 
  338   319   321   322     9 
  316   319   338   339     9 
  316   319   338   340     9 
  316   319   338   344     9 
  320   319   338   339     9 
  320   319   338   340     9 
  320   319   338   344     9 
  321   319   338   339     9 
  321   319   338   340     9 
  321   319   338   344     9 
  319   321   322   323     9 
  319   321   322   324     9 
  319   321   322   340     9 
  321   322   324   325     9 
  321   322   324   337     9 
  323   322   324   325     9 
  323   322   324   337     9 
  340   322   324   325     9 
  340   322   324   337     9 
  321   322   340   338     9 
  321   322   340   341     9 
  321   322   340   342     9 
  323   322   340   338     9 
  323   322   340   341     9 
  323   322   340   342     9 
  324   322   340   338     9 
  324   322   340   341     9 
  324   322   340   342     9 
  322   324   325   326     9 
  322   324   325   327     9 
  337   324   325   326     9 
  337   324   325   327     9 
  322   324   337   328     9 
  322   324   337   336     9 
  325   324   337   328     9 
  325   324   337   336     9 
  324   325   327   328     9 
  326   325   327   328     9 
  325   327   328   329     9 
  325   327   328   337     9 
  327   328   329   330     9 
  327   328   329   333     9 
  337   328   329   330     9 
  337   328   329   333     9 
  327   328   337   324     9 
  327   328   337   336     9 
  329   328   337   324     9 
  329   328   337   336     9 
  328   329   330   331     9 
  328   329   330   332     9 
  333   329   330   331     9 
  333   329   330   332     9 
  328   329   333   334     9 
  330   329   333   334     9 
  329   333   334   335     9 
  329   333   334   336     9 
  333   334   336   337     9 
  335   334   336   337     9 
  334   336   337   324     9 
  334   336   337   328     9 
  319   338   340   322     9 
  319   338   340   341     9 
  319   338   340   342     9 
  339   338   340   322     9 
  339   338   340   341     9 
  339   338   340   342     9 
  344   338   340   322     9 
  344   338   340   341     9 
  344   338   340   342     9 
  319   338   344   345     9 
  339   338   344   345     9 
  340   338   344   345     9 
  322   340   342   343     9 
  338   340   342   343     9 
  341   340   342   343     9 
  338   344   345   346     9 
  338   344   345   347     9 
  338   344   345   348     9 
  344   345   348   349     9 
  346   345   348   349     9 
  347   345   348   349     9 
  345   348   349   350     9 
  345   348   349   351     9 
  345   348   349   352     9 
  348   349   352   353     9 
  348   349   352   354     9 
  348   349   352   368     9 
  350   349   352   353     9 
  350   349   352   354     9 
  350   349   352   368     9 
  351   349   352   353     9 
  351   349   352   354     9 
  351   349   352   368     9 
  349   352   354   355     9 
  353   352   354   355     9 
  368   352   354   355     9 
  349   352   368   369     9 
  349   352   368   370     9 
  349   352   368   374     9 
  353   352   368   369     9 
  353   352   368   370     9 
  353   352   368   374     9 
  354   352   368   369     9 
  354   352   368   370     9 
  354   352   368   374     9 
  352   354   355   356     9 
  352   354   355   357     9 
  352   354   355   370     9 
  354   355   357   358     9 
  354   355   357   366     9 
  356   355   357   358     9 
  356   355   357   366     9 
  370   355   357   358     9 
  370   355   357   366     9 
  354   355   370   368     9 
  354   355   370   371     9 
  354   355   370   372     9 
  356   355   370   368     9 
  356   355   370   371     9 
  356   355   370   372     9 
  357   355   370   368     9 
  357   355   370   371     9 
  357   355   370   372     9 
  355   357   358   359     9 
  355   357   358   360     9 
  366   357   358   359     9 
  366   357   358   360     9 
  355   357   366   364     9 
  355   357   366   367     9 
  358   357   366   364     9 
  358   357   366   367     9 
  357   358   360   361     9 
  357   358   360   362     9 
  359   358   360   361     9 
  359   358   360   362     9 
  358   360   362   363     9 
  358   360   362   364     9 
  361   360   362   363     9 
  361   360   362   364     9 
  360   362   364   365     9 
  360   362   364   366     9 
  363   362   364   365     9 
  363   362   364   366     9 
  362   364   366   357     9 
  362   364   366   367     9 
  365   364   366   357     9 
  365   364   366   367     9 
  352   368   370   355     9 
  352   368   370   371     9 
  352   368   370   372     9 
  369   368   370   355     9 
  369   368   370   371     9 
  369   368   370   372     9 
  374   368   370   355     9 
  374   368   370   371     9 
  374   368   370   372     9 
  352   368   374   375     9 
  369   368   374   375     9 
  370   368   374   375     9 
  355   370   372   373     9 
  368   370   372   373     9 
  371   370   372   373     9 
  368   374   375   376     9 
  368   374   375   377     9 
  368   374   375   378     9 
  374   375   378   379     9 
  376   375   378   379     9 
  377   375   378   379     9 
  375   378   379   380     9 
  375   378   379   381     9 
  375   378   379   382     9 
  378   379   382   383     9 
  378   379   382   384     9 
  378   379   382   402     9 
  380   379   382   383     9 
  380   379   382   384     9 
  380   379   382   402     9 
  381   379   382   383     9 
  381   379   382   384     9 
  381   379   382   402     9 
  379   382   384   385     9 
  383   382   384   385     9 
  402   382   384   385     9 
  379   382   402   403     9 
  379   382   402   404     9 
  379   382   402   408     9 
  383   382   402   403     9 
  383   382   402   404     9 
  383   382   402   408     9 
  384   382   402   403     9 
  384   382   402   404     9 
  384   382   402   408     9 
  382   384   385   386     9 
  382   384   385   387     9 
  382   384   385   404     9 
  384   385   387   388     9 
  384   385   387   401     9 
  386   385   387   388     9 
  386   385   387   401     9 
  404   385   387   388     9 
  404   385   387   401     9 
  384   385   404   402     9 
  384   385   404   405     9 
  384   385   404   406     9 
  386   385   404   402     9 
  386   385   404   405     9 
  386   385   404   406     9 
  387   385   404   402     9 
  387   385   404   405     9 
  387   385   404   406     9 
  385   387   388   389     9 
  385   387   388   390     9 
  401   387   388   389     9 
  401   387   388   390     9 
  385   387   401   391     9 
  385   387   401   400     9 
  388   387   401   391     9 
  388   387   401   400     9 
  387   388   390   391     9 
  389   388   390   391     9 
  388   390   391   392     9 
  388   390   391   401     9 
  390   391   392   393     9 
  390   391   392   394     9 
  401   391   392   393     9 
  401   391   392   394     9 
  390   391   401   387     9 
  390   391   401   400     9 
  392   391   401   387     9 
  392   391   401   400     9 
  391   392   394   395     9 
  391   392   394   396     9 
  393   392   394   395     9 
  393   392   394   396     9 
  392   394   396   397     9 
  392   394   396   400     9 
  395   394   396   397     9 
  395   394   396   400     9 
  394   396   397   398     9 
  394   396   397   399     9 
  400   396   397   398     9 
  400   396   397   399     9 
  394   396   400   401     9 
  397   396   400   401     9 
  396   400   401   387     9 
  396   400   401   391     9 
  382   402   404   385     9 
  382   402   404   405     9 
  382   402   404   406     9 
  403   402   404   385     9 
  403   402   404   405     9 
  403   402   404   406     9 
  408   402   404   385     9 
  408   402   404   405     9 
  408   402   404   406     9 
  382   402   408   409     9 
  403   402   408   409     9 
  404   402   408   409     9 
  385   404   406   407     9 
  402   404   406   407     9 
  405   404   406   407     9 
  402   408   409   410     9 
  402   408   409   411     9 
  402   408   409   412     9 
  408   409   412   413     9 
  410   409   412   413     9 
  411   409   412   413     9 
  409   412   413   414     9 
  409   412   413   415     9 
  409   412   413   416     9 
  412   413   416   417     9 
  412   413   416   418     9 
  412   413   416   435     9 
  414   413   416   417     9 
  414   413   416   418     9 
  414   413   416   435     9 
  415   413   416   417     9 
  415   413   416   418     9 
  415   413   416   435     9 
  413   416   418   419     9 
  417   416   418   419     9 
  435   416   418   419     9 
  413   416   435   436     9 
  413   416   435   437     9 
  413   416   435   441     9 
  417   416   435   436     9 
  417   416   435   437     9 
  417   416   435   441     9 
  418   416   435   436     9 
  418   416   435   437     9 
  418   416   435   441     9 
  416   418   419   420     9 
  416   418   419   421     9 
  416   418   419   437     9 
  418   419   421   422     9 
  418   419   421   434     9 
  420   419   421   422     9 
  420   419   421   434     9 
  437   419   421   422     9 
  437   419   421   434     9 
  418   419   437   435     9 
  418   419   437   438     9 
  418   419   437   439     9 
  420   419   437   435     9 
  420   419   437   438     9 
  420   419   437   439     9 
  421   419   437   435     9 
  421   419   437   438     9 
  421   419   437   439     9 
  419   421   422   423     9 
  419   421   422   424     9 
  434   421   422   423     9 
  434   421   422   424     9 
  419   421   434   425     9 
  419   421   434   433     9 
  422   421   434   425     9 
  422   421   434   433     9 
  421   422   424   425     9 
  423   422   424   425     9 
  422   424   425   426     9 
  422   424   425   434     9 
  424   425   426   427     9 
  424   425   426   430     9 
  434   425   426   427     9 
  434   425   426   430     9 
  424   425   434   421     9 
  424   425   434   433     9 
  426   425   434   421     9 
  426   425   434   433     9 
  425   426   427   428     9 
  425   426   427   429     9 
  430   426   427   428     9 
  430   426   427   429     9 
  425   426   430   431     9 
  427   426   430   431     9 
  426   430   431   432     9 
  426   430   431   433     9 
  430   431   433   434     9 
  432   431   433   434     9 
  431   433   434   421     9 
  431   433   434   425     9 
  416   435   437   419     9 
  416   435   437   438     9 
  416   435   437   439     9 
  436   435   437   419     9 
  436   435   437   438     9 
  436   435   437   439     9 
  441   435   437   419     9 
  441   435   437   438     9 
  441   435   437   439     9 
  416   435   441   442     9 
  436   435   441   442     9 
  437   435   441   442     9 
  419   437   439   440     9 
  435   437   439   440     9 
  438   437   439   440     9 
  435   441   442   443     9 
  435   441   442   444     9 
  435   441   442   445     9 
  441   442   445   446     9 
  443   442   445   446     9 
  444   442   445   446     9 
  442   445   446   447     9 
  442   445   446   448     9 
  442   445   446   449     9 
  445   446   449   450     9 
  445   446   449   451     9 
  445   446   449   468     9 
  447   446   449   450     9 
  447   446   449   451     9 
  447   446   449   468     9 
  448   446   449   450     9 
  448   446   449   451     9 
  448   446   449   468     9 
  446   449   451   452     9 
  450   449   451   452     9 
  468   449   451   452     9 
  446   449   468   469     9 
  446   449   468   470     9 
  446   449   468   474     9 
  450   449   468   469     9 
  450   449   468   470     9 
  450   449   468   474     9 
  451   449   468   469     9 
  451   449   468   470     9 
  451   449   468   474     9 
  449   451   452   453     9 
  449   451   452   454     9 
  449   451   452   470     9 
  451   452   454   455     9 
  451   452   454   467     9 
  453   452   454   455     9 
  453   452   454   467     9 
  470   452   454   455     9 
  470   452   454   467     9 
  451   452   470   468     9 
  451   452   470   471     9 
  451   452   470   472     9 
  453   452   470   468     9 
  453   452   470   471     9 
  453   452   470   472     9 
  454   452   470   468     9 
  454   452   470   471     9 
  454   452   470   472     9 
  452   454   455   456     9 
  452   454   455   457     9 
  467   454   455   456     9 
  467   454   455   457     9 
  452   454   467   458     9 
  452   454   467   466     9 
  455   454   467   458     9 
  455   454   467   466     9 
  454   455   457   458     9 
  456   455   457   458     9 
  455   457   458   459     9 
  455   457   458   467     9 
  457   458   459   460     9 
  457   458   459   463     9 
  467   458   459   460     9 
  467   458   459   463     9 
  457   458   467   454     9 
  457   458   467   466     9 
  459   458   467   454     9 
  459   458   467   466     9 
  458   459   460   461     9 
  458   459   460   462     9 
  463   459   460   461     9 
  463   459   460   462     9 
  458   459   463   464     9 
  460   459   463   464     9 
  459   463   464   465     9 
  459   463   464   466     9 
  463   464   466   467     9 
  465   464   466   467     9 
  464   466   467   454     9 
  464   466   467   458     9 
  449   468   470   452     9 
  449   468   470   471     9 
  449   468   470   472     9 
  469   468   470   452     9 
  469   468   470   471     9 
  469   468   470   472     9 
  474   468   470   452     9 
  474   468   470   471     9 
  474   468   470   472     9 
  449   468   474   475     9 
  469   468   474   475     9 
  470   468   474   475     9 
  452   470   472   473     9 
  468   470   472   473     9 
  471   470   472   473     9 
  468   474   475   476     9 
  468   474   475   477     9 
  468   474   475   478     9 
  474   475   478   479     9 
  476   475   478   479     9 
  477   475   478   479     9 
  475   478   479   480     9 
  475   478   479   481     9 
  475   478   479   482     9 
  478   479   482   483     9 
  478   479   482   484     9 
  478   479   482   498     9 
  480   479   482   483     9 
  480   479   482   484     9 
  480   479   482   498     9 
  481   479   482   483     9 
  481   479   482   484     9 
  481   479   482   498     9 
  479   482   484   485     9 
  483   482   484   485     9 
  498   482   484   485     9 
  479   482   498   499     9 
  479   482   498   500     9 
  479   482   498   504     9 
  483   482   498   499     9 
  483   482   498   500     9 
  483   482   498   504     9 
  484   482   498   499     9 
  484   482   498   500     9 
  484   482   498   504     9 
  482   484   485   486     9 
  482   484   485   487     9 
  482   484   485   500     9 
  484   485   487   488     9 
  484   485   487   496     9 
  486   485   487   488     9 
  486   485   487   496     9 
  500   485   487   488     9 
  500   485   487   496     9 
  484   485   500   498     9 
  484   485   500   501     9 
  484   485   500   502     9 
  486   485   500   498     9 
  486   485   500   501     9 
  486   485   500   502     9 
  487   485   500   498     9 
  487   485   500   501     9 
  487   485   500   502     9 
  485   487   488   489     9 
  485   487   488   490     9 
  496   487   488   489     9 
  496   487   488   490     9 
  485   487   496   494     9 
  485   487   496   497     9 
  488   487   496   494     9 
  488   487   496   497     9 
  487   488   490   491     9 
  487   488   490   492     9 
  489   488   490   491     9 
  489   488   490   492     9 
  488   490   492   493     9 
  488   490   492   494     9 
  491   490   492   493     9 
  491   490   492   494     9 
  490   492   494   495     9 
  490   492   494   496     9 
  493   492   494   495     9 
  493   492   494   496     9 
  492   494   496   487     9 
  492   494   496   497     9 
  495   494   496   487     9 
  495   494   496   497     9 
  482   498   500   485     9 
  482   498   500   501     9 
  482   498   500   502     9 
  499   498   500   485     9 
  499   498   500   501     9 
  499   498   500   502     9 
  504   498   500   485     9 
  504   498   500   501     9 
  504   498   500   502     9 
  482   498   504   505     9 
  499   498   504   505     9 
  500   498   504   505     9 
  485   500   502   503     9 
  498   500   502   503     9 
  501   500   502   503     9 
  498   504   505   506     9 
  498   504   505   507     9 
  498   504   505   508     9 
  504   505   508   509     9 
  506   505   508   509     9 
  507   505   508   509     9 
  505   508   509   510     9 
  505   508   509   511     9 
  505   508   509   512     9 
  508   509   512   513     9 
  508   509   512   514     9 
  508   509   512   529     9 
  510   509   512   513     9 
  510   509   512   514     9 
  510   509   512   529     9 
  511   509   512   513     9 
  511   509   512   514     9 
  511   509   512   529     9 
  509   512   514   515     9 
  513   512   514   515     9 
  529   512   514   515     9 
  509   512   529   530     9 
  509   512   529   531     9 
  509   512   529   535     9 
  513   512   529   530     9 
  513   512   529   531     9 
  513   512   529   535     9 
  514   512   529   530     9 
  514   512   529   531     9 
  514   512   529   535     9 
  512   514   515   516     9 
  512   514   515   517     9 
  512   514   515   531     9 
  514   515   517   518     9 
  514   515   517   527     9 
  516   515   517   518     9 
  516   515   517   527     9 
  531   515   517   518     9 
  531   515   517   527     9 
  514   515   531   529     9 
  514   515   531   532     9 
  514   515   531   533     9 
  516   515   531   529     9 
  516   515   531   532     9 
  516   515   531   533     9 
  517   515   531   529     9 
  517   515   531   532     9 
  517   515   531   533     9 
  515   517   518   519     9 
  515   517   518   520     9 
  527   517   518   519     9 
  527   517   518   520     9 
  515   517   527   526     9 
  515   517   527   528     9 
  518   517   527   526     9 
  518   517   527   528     9 
  517   518   520   521     9 
  517   518   520   522     9 
  519   518   520   521     9 
  519   518   520   522     9 
  518   520   522   523     9 
  518   520   522   526     9 
  521   520   522   523     9 
  521   520   522   526     9 
  520   522   523   524     9 
  520   522   523   525     9 
  526   522   523   524     9 
  526   522   523   525     9 
  520   522   526   527     9 
  523   522   526   527     9 
  522   526   527   517     9 
  522   526   527   528     9 
  512   529   531   515     9 
  512   529   531   532     9 
  512   529   531   533     9 
  530   529   531   515     9 
  530   529   531   532     9 
  530   529   531   533     9 
  535   529   531   515     9 
  535   529   531   532     9 
  535   529   531   533     9 
  512   529   535   536     9 
  530   529   535   536     9 
  531   529   535   536     9 
  515   531   533   534     9 
  529   531   533   534     9 
  532   531   533   534     9 
  529   535   536   537     9 
  529   535   536   538     9 
  529   535   536   539     9 
  535   536   539   540     9 
  537   536   539   540     9 
  538   536   539   540     9 
  536   539   540   541     9 
  536   539   540   542     9 
  536   539   540   543     9 
  539   540   543   544     9 
  539   540   543   545     9 
  539   540   543   560     9 
  541   540   543   544     9 
  541   540   543   545     9 
  541   540   543   560     9 
  542   540   543   544     9 
  542   540   543   545     9 
  542   540   543   560     9 
  540   543   545   546     9 
  544   543   545   546     9 
  560   543   545   546     9 
  540   543   560   561     9 
  540   543   560   562     9 
  540   543   560   566     9 
  544   543   560   561     9 
  544   543   560   562     9 
  544   543   560   566     9 
  545   543   560   561     9 
  545   543   560   562     9 
  545   543   560   566     9 
  543   545   546   547     9 
  543   545   546   548     9 
  543   545   546   562     9 
  545   546   548   549     9 
  545   546   548   558     9 
  547   546   548   549     9 
  547   546   548   558     9 
  562   546   548   549     9 
  562   546   548   558     9 
  545   546   562   560     9 
  545   546   562   563     9 
  545   546   562   564     9 
  547   546   562   560     9 
  547   546   562   563     9 
  547   546   562   564     9 
  548   546   562   560     9 
  548   546   562   563     9 
  548   546   562   564     9 
  546   548   549   550     9 
  546   548   549   551     9 
  558   548   549   550     9 
  558   548   549   551     9 
  546   548   558   557     9 
  546   548   558   559     9 
  549   548   558   557     9 
  549   548   558   559     9 
  548   549   551   552     9 
  548   549   551   553     9 
  550   549   551   552     9 
  550   549   551   553     9 
  549   551   553   554     9 
  549   551   553   557     9 
  552   551   553   554     9 
  552   551   553   557     9 
  551   553   554   555     9 
  551   553   554   556     9 
  557   553   554   555     9 
  557   553   554   556     9 
  551   553   557   558     9 
  554   553   557   558     9 
  553   557   558   548     9 
  553   557   558   559     9 
  543   560   562   546     9 
  543   560   562   563     9 
  543   560   562   564     9 
  561   560   562   546     9 
  561   560   562   563     9 
  561   560   562   564     9 
  566   560   562   546     9 
  566   560   562   563     9 
  566   560   562   564     9 
  543   560   566   567     9 
  561   560   566   567     9 
  562   560   566   567     9 
  546   562   564   565     9 
  560   562   564   565     9 
  563   562   564   565     9 
  560   566   567   568     9 
  560   566   567   569     9 
  560   566   567   570     9 
  566   567   570   571     9 
  568   567   570   571     9 
  569   567   570   571     9 
  567   570   571   572     9 
  567   570   571   573     9 
  567   570   571   574     9 
  570   571   574   575     9 
  570   571   574   576     9 
  570   571   574   590     9 
  572   571   574   575     9 
  572   571   574   576     9 
  572   571   574   590     9 
  573   571   574   575     9 
  573   571   574   576     9 
  573   571   574   590     9 
  571   574   576   577     9 
  575   574   576   577     9 
  590   574   576   577     9 
  571   574   590   591     9 
  571   574   590   592     9 
  571   574   590   596     9 
  575   574   590   591     9 
  575   574   590   592     9 
  575   574   590   596     9 
  576   574   590   591     9 
  576   574   590   592     9 
  576   574   590   596     9 
  574   576   577   578     9 
  574   576   577   579     9 
  574   576   577   592     9 
  576   577   579   580     9 
  576   577   579   588     9 
  578   577   579   580     9 
  578   577   579   588     9 
  592   577   579   580     9 
  592   577   579   588     9 
  576   577   592   590     9 
  576   577   592   593     9 
  576   577   592   594     9 
  578   577   592   590     9 
  578   577   592   593     9 
  578   577   592   594     9 
  579   577   592   590     9 
  579   577   592   593     9 
  579   577   592   594     9 
  577   579   580   581     9 
  577   579   580   582     9 
  588   579   580   581     9 
  588   579   580   582     9 
  577   579   588   586     9 
  577   579   588   589     9 
  580   579   588   586     9 
  580   579   588   589     9 
  579   580   582   583     9 
  579   580   582   584     9 
  581   580   582   583     9 
  581   580   582   584     9 
  580   582   584   585     9 
  580   582   584   586     9 
  583   582   584   585     9 
  583   582   584   586     9 
  582   584   586   587     9 
  582   584   586   588     9 
  585   584   586   587     9 
  585   584   586   588     9 
  584   586   588   579     9 
  584   586   588   589     9 
  587   586   588   579     9 
  587   586   588   589     9 
  574   590   592   577     9 
  574   590   592   593     9 
  574   590   592   594     9 
  591   590   592   577     9 
  591   590   592   593     9 
  591   590   592   594     9 
  596   590   592   577     9 
  596   590   592   593     9 
  596   590   592   594     9 
  574   590   596   597     9 
  591   590   596   597     9 
  592   590   596   597     9 
  577   592   594   595     9 
  590   592   594   595     9 
  593   592   594   595     9 
  590   596   597   598     9 
  590   596   597   599     9 
  590   596   597   600     9 
  596   597   600   601     9 
  598   597   600   601     9 
  599   597   600   601     9 
  597   600   601   602     9 
  597   600   601   603     9 
  597   600   601   604     9 
  600   601   604   605     9 
  600   601   604   606     9 
  600   601   604   623     9 
  602   601   604   605     9 
  602   601   604   606     9 
  602   601   604   623     9 
  603   601   604   605     9 
  603   601   604   606     9 
  603   601   604   623     9 
  601   604   606   607     9 
  605   604   606   607     9 
  623   604   606   607     9 
  601   604   623   624     9 
  601   604   623   625     9 
  601   604   623   629     9 
  605   604   623   624     9 
  605   604   623   625     9 
  605   604   623   629     9 
  606   604   623   624     9 
  606   604   623   625     9 
  606   604   623   629     9 
  604   606   607   608     9 
  604   606   607   609     9 
  604   606   607   625     9 
  606   607   609   610     9 
  606   607   609   622     9 
  608   607   609   610     9 
  608   607   609   622     9 
  625   607   609   610     9 
  625   607   609   622     9 
  606   607   625   623     9 
  606   607   625   626     9 
  606   607   625   627     9 
  608   607   625   623     9 
  608   607   625   626     9 
  608   607   625   627     9 
  609   607   625   623     9 
  609   607   625   626     9 
  609   607   625   627     9 
  607   609   610   611     9 
  607   609   610   612     9 
  622   609   610   611     9 
  622   609   610   612     9 
  607   609   622   613     9 
  607   609   622   621     9 
  610   609   622   613     9 
  610   609   622   621     9 
  609   610   612   613     9 
  611   610   612   613     9 
  610   612   613   614     9 
  610   612   613   622     9 
  612   613   614   615     9 
  612   613   614   618     9 
  622   613   614   615     9 
  622   613   614   618     9 
  612   613   622   609     9 
  612   613   622   621     9 
  614   613   622   609     9 
  614   613   622   621     9 
  613   614   615   616     9 
  613   614   615   617     9 
  618   614   615   616     9 
  618   614   615   617     9 
  613   614   618   619     9 
  615   614   618   619     9 
  614   618   619   620     9 
  614   618   619   621     9 
  618   619   621   622     9 
  620   619   621   622     9 
  619   621   622   609     9 
  619   621   622   613     9 
  604   623   625   607     9 
  604   623   625   626     9 
  604   623   625   627     9 
  624   623   625   607     9 
  624   623   625   626     9 
  624   623   625   627     9 
  629   623   625   607     9 
  629   623   625   626     9 
  629   623   625   627     9 
  604   623   629   630     9 
  624   623   629   630     9 
  625   623   629   630     9 
  607   625   627   628     9 
  623   625   627   628     9 
  626   625   627   628     9 
  623   629   630   631     9 
  623   629   630   632     9 
  623   629   630   633     9 
  629   630   633   634     9 
  631   630   633   634     9 
  632   630   633   634     9 
  630   633   634   635     9 
  630   633   634   636     9 
  630   633   634   637     9 
  633   634   637   638     9 
  633   634   637   639     9 
  633   634   637   653     9 
  635   634   637   638     9 
  635   634   637   639     9 
  635   634   637   653     9 
  636   634   637   638     9 
  636   634   637   639     9 
  636   634   637   653     9 
  634   637   639   640     9 
  638   637   639   640     9 
  653   637   639   640     9 
  634   637   653   654     9 
  634   637   653   655     9 
  634   637   653   659     9 
  638   637   653   654     9 
  638   637   653   655     9 
  638   637   653   659     9 
  639   637   653   654     9 
  639   637   653   655     9 
  639   637   653   659     9 
  637   639   640   641     9 
  637   639   640   642     9 
  637   639   640   655     9 
  639   640   642   643     9 
  639   640   642   651     9 
  641   640   642   643     9 
  641   640   642   651     9 
  655   640   642   643     9 
  655   640   642   651     9 
  639   640   655   653     9 
  639   640   655   656     9 
  639   640   655   657     9 
  641   640   655   653     9 
  641   640   655   656     9 
  641   640   655   657     9 
  642   640   655   653     9 
  642   640   655   656     9 
  642   640   655   657     9 
  640   642   643   644     9 
  640   642   643   645     9 
  651   642   643   644     9 
  651   642   643   645     9 
  640   642   651   649     9 
  640   642   651   652     9 
  643   642   651   649     9 
  643   642   651   652     9 
  642   643   645   646     9 
  642   643   645   647     9 
  644   643   645   646     9 
  644   643   645   647     9 
  643   645   647   648     9 
  643   645   647   649     9 
  646   645   647   648     9 
  646   645   647   649     9 
  645   647   649   650     9 
  645   647   649   651     9 
  648   647   649   650     9 
  648   647   649   651     9 
  647   649   651   642     9 
  647   649   651   652     9 
  650   649   651   642     9 
  650   649   651   652     9 
  637   653   655   640     9 
  637   653   655   656     9 
  637   653   655   657     9 
  654   653   655   640     9 
  654   653   655   656     9 
  654   653   655   657     9 
  659   653   655   640     9 
  659   653   655   656     9 
  659   653   655   657     9 
  637   653   659   660     9 
  654   653   659   660     9 
  655   653   659   660     9 
  640   655   657   658     9 
  653   655   657   658     9 
  656   655   657   658     9 

[ dihedrals ]
;  ai    aj    ak    al funct            c0            c1            c2            c3
    9    11    12    25     4 
   11    14    12    13     4 
   15    18    16    17     4 
   16    20    18    19     4 
   20    22    21    23     4 
   21    18    20    24     4 
   43    45    46    54     4 
   45    48    46    47     4 
   45    52    54    55     4 
   46    50    48    49     4 
   48    52    50    51     4 
   50    54    52    53     4 
   73    75    76    85     4 
   75    78    76    77     4 
   75    84    85    86     4 
   76    80    78    79     4 
   78    81    80    84     4 
   80    82    81    83     4 
  104   106   107   115     4 
  106   109   107   108     4 
  106   113   115   116     4 
  107   111   109   110     4 
  109   113   111   112     4 
  111   115   113   114     4 
  134   136   137   146     4 
  136   139   137   138     4 
  136   145   146   147     4 
  137   141   139   140     4 
  139   142   141   145     4 
  141   143   142   144     4 
  165   167   168   177     4 
  167   170   168   169     4 
  167   176   177   178     4 
  168   172   170   171     4 
  170   173   172   176     4 
  172   174   173   175     4 
  196   198   199   207     4 
  198   201   199   200     4 
  198   205   207   208     4 
  199   203   201   202     4 
  201   205   203   204     4 
  203   207   205   206     4 
  226   228   229   241     4 
  228   231   229   230     4 
  232   234   233   237     4 
  233   235   234   236     4 
  237   240   238   239     4 
  259   261   262   274     4 
  261   264   262   263     4 
  265   267   266   270     4 
  266   268   267   269     4 
  270   273   271   272     4 
  292   294   295   303     4 
  294   297   295   296     4 
  294   301   303   304     4 
  295   299   297   298     4 
  297   301   299   300     4 
  299   303   301   302     4 
  322   324   325   337     4 
  324   327   325   326     4 
  328   330   329   333     4 
  329   331   330   332     4 
  333   336   334   335     4 
  355   357   358   366     4 
  357   360   358   359     4 
  357   364   366   367     4 
  358   362   360   361     4 
  360   364   362   363     4 
  362   366   364   365     4 
  385   387   388   401     4 
  387   390   388   389     4 
  391   394   392   393     4 
  392   396   394   395     4 
  396   398   397   399     4 
  397   394   396   400     4 
  419   421   422   434     4 
  421   424   422   423     4 
  425   427   426   430     4 
  426   428   427   429     4 
  430   433   431   432     4 
  452   454   455   467     4 
  454   457   455   456     4 
  458   460   459   463     4 
  459   461   460   462     4 
  463   466   464   465     4 
  485   487   488   496     4 
  487   490   488   489     4 
  487   494   496   497     4 
  488   492   490   491     4 
  490   494   492   493     4 
  492   496   494   495     4 
  515   517   518   527     4 
  517   520   518   519     4 
  517   526   527   528     4 
  518   522   520   521     4 
  520   523   522   526     4 
  522   524   523   525     4 
  546   548   549   558     4 
  548   551   549   550     4 
  548   557   558   559     4 
  549   553   551   552     4 
  551   554   553   557     4 
  553   555   554   556     4 
  577   579   580   588     4 
  579   582   580   581     4 
  579   586   588   589     4 
  580   584   582   583     4 
  582   586   584   585     4 
  584   588   586   587     4 
  607   609   610   622     4 
  609   612   610   611     4 
  613   615   614   618     4 
  614   616   615   617     4 
  618   621   619   620     4 
  640   642   643   651     4 
  642   645   643   644     4 
  642   649   651   652     4 
  643   647   645   646     4 
  645   649   647   648     4 
  647   651   649   650     4 

; Include Position restraint file
#ifdef POSRES
#include "posre_RNA_chain_C.itp"
#endif

